
                                 *****************
                                 * O   R   C   A *
                                 *****************

           --- An Ab Initio, DFT and Semiempirical electronic structure package ---

                  #######################################################
                  #                        -***-                        #
                  #          Department of theory and spectroscopy      #
                  #               Directorship: Frank Neese             #
                  #        Max Planck Institute fuer Kohlenforschung    #
                  #                Kaiser Wilhelm Platz 1               #
                  #                 D-45470 Muelheim/Ruhr               #
                  #                      Germany                        #
                  #                                                     #
                  #                  All rights reserved                #
                  #                        -***-                        #
                  #######################################################


                         Program Version 4.2.1 -  RELEASE  -


 With contributions from (in alphabetic order):
   Daniel Aravena         : Magnetic Suceptibility
   Michael Atanasov       : Ab Initio Ligand Field Theory (pilot matlab implementation)
   Alexander A. Auer      : GIAO ZORA, VPT2
   Ute Becker             : Parallelization
   Giovanni Bistoni       : ED, misc. LED, open-shell LED, HFLD
   Martin Brehm           : Molecular dynamics
   Dmytro Bykov           : SCF Hessian
   Vijay G. Chilkuri      : MRCI spin determinant printing, contributions to CSF-ICE
   Dipayan Datta          : RHF DLPNO-CCSD density
   Achintya Kumar Dutta   : EOM-CC, STEOM-CC
   Dmitry Ganyushin       : Spin-Orbit,Spin-Spin,Magnetic field MRCI
   Miquel Garcia          : C-PCM Hessian, Gaussian charge scheme
   Yang Guo               : DLPNO-NEVPT2, CIM, IAO-localization
   Andreas Hansen         : Spin unrestricted coupled pair/coupled cluster methods
   Benjamin Helmich-Paris : CASSCF linear response (MC-RPA)
   Lee Huntington         : MR-EOM, pCC
   Robert Izsak           : Overlap fitted RIJCOSX, COSX-SCS-MP3, EOM
   Christian Kollmar      : KDIIS, OOCD, Brueckner-CCSD(T), CCSD density
   Simone Kossmann        : Meta GGA functionals, TD-DFT gradient, OOMP2, MP2 Hessian
   Martin Krupicka        : AUTO-CI
   Lucas Lang             : DCDCAS
   Dagmar Lenk            : GEPOL surface, SMD
   Dimitrios Liakos       : Extrapolation schemes; Compound Job, initial MDCI parallelization
   Dimitrios Manganas     : Further ROCIS development; embedding schemes
   Dimitrios Pantazis     : SARC Basis sets
   Taras Petrenko         : DFT Hessian,TD-DFT gradient, ASA, ECA, R-Raman, ABS, FL, XAS/XES, NRVS
   Peter Pinski           : DLPNO-MP2, DLPNO-MP2 Gradient
   Christoph Reimann      : Effective Core Potentials
   Marius Retegan         : Local ZFS, SOC
   Christoph Riplinger    : Optimizer, TS searches, QM/MM, DLPNO-CCSD(T), (RO)-DLPNO pert. Triples
   Tobias Risthaus        : Range-separated hybrids, TD-DFT gradient, RPA, STAB
   Michael Roemelt        : Original ROCIS implementation
   Masaaki Saitow         : Open-shell DLPNO-CCSD energy and density
   Barbara Sandhoefer     : DKH picture change effects
   Avijit Sen             : IP-ROCIS
   Kantharuban Sivalingam : CASSCF convergence, NEVPT2, FIC-MRCI
   Bernardo de Souza      : ESD, SOC TD-DFT
   Georgi Stoychev        : AutoAux, RI-MP2 NMR
   Willem Van den Heuvel  : Paramagnetic NMR
   Boris Wezisla          : Elementary symmetry handling
   Frank Wennmohs         : Technical directorship


 We gratefully acknowledge several colleagues who have allowed us to
 interface, adapt or use parts of their codes:
   Stefan Grimme, W. Hujo, H. Kruse,             : VdW corrections, initial TS optimization,
                  C. Bannwarth                     DFT functionals, gCP, sTDA/sTD-DF
   Ed Valeev, F. Pavosevic, A. Kumar             : LibInt (2-el integral package), F12 methods
   Garnet Chan, S. Sharma, J. Yang, R. Olivares  : DMRG
   Ulf Ekstrom                                   : XCFun DFT Library
   Mihaly Kallay                                 : mrcc  (arbitrary order and MRCC methods)
   Andreas Klamt, Michael Diedenhofen            : otool_cosmo (COSMO solvation model)
   Jiri Pittner, Ondrej Demel                    : Mk-CCSD
   Frank Weinhold                                : gennbo (NPA and NBO analysis)
   Christopher J. Cramer and Donald G. Truhlar   : smd solvation model
   Lars Goerigk                                  : TD-DFT with DH, B97 family of functionals
   V. Asgeirsson, H. Jonsson                     : NEB implementation
   FAccTs GmbH                                   : IRC, NEB, NEB-TS, Multilevel, MM, QM/MM, CI optimization
   S Lehtola, MJT Oliveira, MAL Marques          : LibXC Library


 Your calculation uses the libint2 library for the computation of 2-el integrals
 For citations please refer to: http://libint.valeyev.net

 Your ORCA version has been built with support for libXC version: 4.2.3
 For citations please refer to: https://tddft.org/programs/libxc/

 This ORCA versions uses:
   CBLAS   interface :  Fast vector & matrix operations
   LAPACKE interface :  Fast linear algebra routines
   SCALAPACK package :  Parallel linear algebra routines


Your calculation utilizes the atom-pairwise dispersion correction
with the Becke-Johnson damping scheme (D3BJ)
Cite in your paper:
S.Grimme, S.Ehrlich, L.Goerigk, J Comput Chem, (2011), 32, 1456–1465 
S.Grimme, J.Antony, S.Ehrlich and H.Krieg, J.Chem.Phys., 132, (2010), 154104 
   

----- Orbital basis set information -----
Your calculation utilizes the basis: def2-SV(P)
   F. Weigend and R. Ahlrichs, Phys. Chem. Chem. Phys. 7, 3297 (2005).

----- AuxJ basis set information -----
Your calculation utilizes the auxiliary basis: def2/J
   F. Weigend, Phys. Chem. Chem. Phys. 8, 1057 (2006).

cite the ECPs for Rh [Def2-ECP] as follows:
Ce-Yb(ecp-28): M. Dolg, H. Stoll, H.Preuss, J. Chem. Phys., 1989, 90, 1730-1734.
Y-Cd(ecp-28), Hf-Hg(ecp-46): D. Andrae,U. Haeussermann, M. Dolg, H. Stoll, H. Preuss, Theor. Chim. Acta, 1990, 77, 123-141.
In-Sb(ecp-28), Tl-Bi(ecp-46): B. Metz, H. Stoll, M. Dolg, J. Chem. Phys., 2000, 113, 2563-2569.
Te-Xe(ecp-28), Po-Rn(ecp-46): K. A. Peterson, D. Figgen, E. Goll, H. Stoll, M. Dolg, J. Chem. Phys., 2003, 119, 11113-11123.
Rb(ecp-28), Cs(ecp-46): T. Leininger, A. Nicklass, W. Kuechle, H. Stoll, M. Dolg, A. Bergner, Chem. Phys. Lett., 1996, 255, 274-280.
Sr(ecp-28), Ba(ecp-46): M. Kaupp, P. V. Schleyer, H. Stoll and H. Preuss, J. Chem. Phys., 1991, 94, 1360-1366.
La(ecp-46): M. Dolg, H. Stoll, A. Savin, H. Preuss, Theor. Chim. Acta, 1989, 75, 173-194.
Lu(ecp-28): X. Cao, M. Dolg, J. Chem. Phys., 2001, 115, 7348-7355.

ECP parameters for Rh [Def2-ECP] have been obtained from:
TURBOMOLE (7.0.2)

================================================================================
                                        WARNINGS
                       Please study these warnings very carefully!
================================================================================


INFO   : the flag for use of LIBINT has been found!

================================================================================
                                       INPUT FILE
================================================================================
NAME = Cl_CA_TSopt_freq.inp
|  1> %pal 
|  2> nprocs 16
|  3> end
|  4> ! BLYP D3 freq def2-sv(p)
|  5> %maxcore 4000
|  6> * xyz 0 1
|  7>   C     -0.013989    0.026286   -0.812526
|  8>   C      1.310263    0.032447   -1.549518
|  9>   O      1.444944   -1.174919   -2.262700
| 10>   C      0.210964   -1.842625   -2.273953
| 11>   H      0.263279   -2.871561   -1.883320
| 12>   O      2.196789    0.847918   -1.536433
| 13>   C     -1.169264    0.806853   -1.311483
| 14>   C     -2.394728    0.097241   -1.402531
| 15>   C     -1.145375    2.130416   -1.849956
| 16>   C     -3.497551    0.592393   -2.121392
| 17>   H     -2.464866   -0.912030   -0.980888
| 18>   C     -2.257780    2.639779   -2.535859
| 19>   C     -3.423116    1.875032   -2.707906
| 20>   H     -2.212256    3.655343   -2.950062
| 21>   H     -4.261837    2.304631   -3.266338
| 22>   Br     0.310037    3.344294   -1.560989
| 23>   O     -4.568923   -0.251065   -2.241752
| 24>   C     -5.642716    0.158727   -3.092900
| 25>   H     -5.268857    0.413693   -4.110424
| 26>   H     -6.330866   -0.702521   -3.159764
| 27>   H     -6.178950    1.031794   -2.661045
| 28>   H     -0.304715   -1.202727   -1.166659
| 29>   Rh     0.518096   -0.639423    3.664499
| 30>   Rh     0.202867   -0.309683    1.228696
| 31>   C      0.976269   -4.521226    1.614738
| 32>   C      0.639493   -3.071660    2.031536
| 33>   N      2.152895   -4.419796    0.718286
| 34>   H      0.160883   -4.794270    0.920298
| 35>   O      0.676555   -2.689188    3.238517
| 36>   O      0.374284   -2.341779    1.004622
| 37>   C      3.382281   -3.783028    1.047025
| 38>   C      1.969892   -4.482568   -0.688446
| 39>   C      4.110179   -3.599217   -0.257036
| 40>   O      3.705894   -3.395996    2.157334
| 41>   C      3.212424   -3.910378   -1.301271
| 42>   O      0.963367   -4.905597   -1.242065
| 43>   C      5.406003   -3.146918   -0.523677
| 44>   C      3.538718   -3.658491   -2.638425
| 45>   C      5.762831   -2.890870   -1.880101
| 46>   C      4.817999   -3.098568   -2.921218
| 47>   C      4.475401    0.094557    1.987788
| 48>   C      2.978593   -0.199589    2.224304
| 49>   N      4.551525    1.137942    0.954986
| 50>   H      4.863442   -0.807799    1.475336
| 51>   O      2.552342   -0.400143    3.402366
| 52>   O      2.285986   -0.234812    1.143138
| 53>   C      3.833722    2.357282    0.977311
| 54>   C      5.051721    0.843513   -0.336295
| 55>   C      4.039348    2.968095   -0.383793
| 56>   O      3.155515    2.759912    1.910519
| 57>   C      4.740655    2.039725   -1.180366
| 58>   O      5.597401   -0.201685   -0.647210
| 59>   C      3.539571    4.154578   -0.926706
| 60>   C      4.919010    2.231275   -2.552018
| 61>   C      3.725176    4.381230   -2.322266
| 62>   C      4.399748    3.425814   -3.128698
| 63>   O      0.110211    1.718785    1.639504
| 64>   C      0.166962    2.126179    2.851984
| 65>   C     -0.029946    3.654523    2.991764
| 66>   O      0.373480    1.415438    3.886083
| 67>   N     -1.182371    4.007675    2.141746
| 68>   H      0.842973    4.099118    2.470891
| 69>   C     -2.350906    3.220838    2.022103
| 70>   C     -1.100926    5.012969    1.145678
| 71>   C     -3.101951    3.786989    0.845735
| 72>   O     -2.648034    2.279852    2.742211
| 73>   C     -2.351938    4.860278    0.320103
| 74>   O     -0.195177    5.819269    1.030019
| 75>   C     -4.314552    3.391888    0.269279
| 76>   C     -2.774837    5.559542   -0.814059
| 77>   C     -4.794028    4.139287   -0.843795
| 78>   C     -4.021735    5.192114   -1.396828
| 79>   O     -1.854924   -0.460765    1.573451
| 80>   C     -2.252466   -0.729188    2.762540
| 81>   C     -3.775176   -0.978560    2.895958
| 82>   O     -1.533908   -0.803648    3.805361
| 83>   N     -4.170898   -1.855499    1.779148
| 84>   H     -4.249598   -0.000969    2.673661
| 85>   C     -3.370674   -2.910100    1.281747
| 86>   C     -5.309268   -1.617631    0.972951
| 87>   C     -4.035789   -3.356518    0.008374
| 88>   O     -2.358357   -3.344589    1.806808
| 89>   C     -5.243694   -2.643678   -0.127405
| 90>   O     -6.133372   -0.735062    1.141951
| 91>   C     -3.619518   -4.281360   -0.954089
| 92>   C     -6.108143   -2.873739   -1.199839
| 93>   C     -4.455536   -4.479675   -2.090960
| 94>   C     -5.687941   -3.783550   -2.211367
| 95>   C     -0.720215   -1.575563   -3.370433
| 96>   C     -1.832020   -2.442906   -3.541086
| 97>   C     -0.626985   -0.400412   -4.163840
| 98>   C     -2.849707   -2.123283   -4.450034
| 99>   H     -1.883062   -3.365151   -2.948428
|100>   C     -1.649578   -0.084027   -5.068142
|101>   H      0.238173    0.267468   -4.054260
|102>   C     -2.766207   -0.936180   -5.206203
|103>   H     -3.711447   -2.797301   -4.567776
|104>   H     -1.583953    0.839440   -5.662719
|105>   H     -3.570383   -0.677333   -5.912919
|106>   C     -4.307456   -1.455008    4.296466
|107>   C     -4.064524   -0.316416    5.323156
|108>   H     -4.530283   -0.585604    6.296004
|109>   H     -2.985903   -0.133948    5.487597
|110>   H     -4.526279    0.634153    4.976080
|111>   C     -3.642930   -2.773689    4.765888
|112>   H     -4.057722   -3.063867    5.755925
|113>   H     -3.850612   -3.604004    4.057859
|114>   H     -2.544809   -2.669395    4.859405
|115>   C     -5.838776   -1.683362    4.186669
|116>   H     -6.249509   -1.924689    5.190583
|117>   H     -6.362614   -0.785062    3.799600
|118>   H     -6.080023   -2.535483    3.515330
|119>   C     -0.069060    4.261911    4.435064
|120>   C     -1.205216    3.666132    5.302064
|121>   H     -1.172815    4.118177    6.317521
|122>   H     -2.202894    3.887467    4.867938
|123>   H     -1.110080    2.567400    5.401781
|124>   C     -0.282704    5.792672    4.303123
|125>   H     -0.236532    6.266886    5.307112
|126>   H      0.489409    6.260772    3.656887
|127>   H     -1.277050    6.028949    3.867582
|128>   C      1.313458    4.015590    5.098757
|129>   H      1.359719    4.547682    6.073165
|130>   H      1.494627    2.938165    5.278099
|131>   H      2.137960    4.399092    4.457800
|132>   C      5.404289    0.327347    3.230628
|133>   C      4.946129    1.499637    4.133189
|134>   H      5.610175    1.557162    5.023704
|135>   H      4.999340    2.473345    3.605411
|136>   H      3.904309    1.359102    4.482164
|137>   C      6.827943    0.623781    2.688098
|138>   H      7.541308    0.719263    3.534969
|139>   H      7.187150   -0.187465    2.018976
|140>   H      6.853808    1.575371    2.115097
|141>   C      5.453024   -0.985544    4.058789
|142>   H      6.217489   -0.889582    4.861008
|143>   H      4.475971   -1.201542    4.532039
|144>   H      5.718887   -1.855510    3.422683
|145>   C      1.015658   -5.645166    2.695646
|146>   C     -0.386314   -5.678448    3.364771
|147>   H     -0.449677   -6.543653    4.060333
|148>   H     -0.580107   -4.752848    3.943312
|149>   H     -1.194109   -5.780073    2.607523
|150>   C      2.105289   -5.459569    3.778160
|151>   H      2.008512   -4.480740    4.285096
|152>   H      2.004018   -6.266222    4.538560
|153>   H      3.126312   -5.521102    3.351272
|154>   C      1.250179   -6.983507    1.947932
|155>   H      1.217156   -7.833170    2.664226
|156>   H      0.474907   -7.155990    1.168931
|157>   H      2.243105   -6.997714    1.449750
|158>   Cl     2.408859   -3.980808   -3.926180
|159>   Cl     5.229935   -2.676206   -4.558228
|160>   Cl     7.350823   -2.308661   -2.259474
|161>   Cl     6.573136   -2.940499    0.751766
|162>   Cl     5.682360    1.016384   -3.542920
|163>   Cl     4.570936    3.701330   -4.840580
|164>   Cl     3.068364    5.822218   -3.048677
|165>   Cl     2.648081    5.296228    0.041784
|166>   Cl    -1.788251    6.794216   -1.541039
|167>   Cl    -4.559751    5.984350   -2.853536
|168>   Cl    -6.331403    3.724662   -1.561060
|169>   Cl    -5.188323    1.992853    0.823656
|170>   Cl    -7.657810   -2.081734   -1.298848
|171>   Cl    -6.673421   -4.004676   -3.632080
|172>   Cl    -3.948630   -5.568762   -3.352666
|173>   Cl    -2.081166   -5.093328   -0.831071
|174> **                         ****END OF INPUT****
================================================================================

                       ****************************
                       * Single Point Calculation *
                       ****************************

---------------------------------
CARTESIAN COORDINATES (ANGSTROEM)
---------------------------------
  C     -0.013989    0.026286   -0.812526
  C      1.310263    0.032447   -1.549518
  O      1.444944   -1.174919   -2.262700
  C      0.210964   -1.842625   -2.273953
  H      0.263279   -2.871561   -1.883320
  O      2.196789    0.847918   -1.536433
  C     -1.169264    0.806853   -1.311483
  C     -2.394728    0.097241   -1.402531
  C     -1.145375    2.130416   -1.849956
  C     -3.497551    0.592393   -2.121392
  H     -2.464866   -0.912030   -0.980888
  C     -2.257780    2.639779   -2.535859
  C     -3.423116    1.875032   -2.707906
  H     -2.212256    3.655343   -2.950062
  H     -4.261837    2.304631   -3.266338
  Br     0.310037    3.344294   -1.560989
  O     -4.568923   -0.251065   -2.241752
  C     -5.642716    0.158727   -3.092900
  H     -5.268857    0.413693   -4.110424
  H     -6.330866   -0.702521   -3.159764
  H     -6.178950    1.031794   -2.661045
  H     -0.304715   -1.202727   -1.166659
  Rh     0.518096   -0.639423    3.664499
  Rh     0.202867   -0.309683    1.228696
  C      0.976269   -4.521226    1.614738
  C      0.639493   -3.071660    2.031536
  N      2.152895   -4.419796    0.718286
  H      0.160883   -4.794270    0.920298
  O      0.676555   -2.689188    3.238517
  O      0.374284   -2.341779    1.004622
  C      3.382281   -3.783028    1.047025
  C      1.969892   -4.482568   -0.688446
  C      4.110179   -3.599217   -0.257036
  O      3.705894   -3.395996    2.157334
  C      3.212424   -3.910378   -1.301271
  O      0.963367   -4.905597   -1.242065
  C      5.406003   -3.146918   -0.523677
  C      3.538718   -3.658491   -2.638425
  C      5.762831   -2.890870   -1.880101
  C      4.817999   -3.098568   -2.921218
  C      4.475401    0.094557    1.987788
  C      2.978593   -0.199589    2.224304
  N      4.551525    1.137942    0.954986
  H      4.863442   -0.807799    1.475336
  O      2.552342   -0.400143    3.402366
  O      2.285986   -0.234812    1.143138
  C      3.833722    2.357282    0.977311
  C      5.051721    0.843513   -0.336295
  C      4.039348    2.968095   -0.383793
  O      3.155515    2.759912    1.910519
  C      4.740655    2.039725   -1.180366
  O      5.597401   -0.201685   -0.647210
  C      3.539571    4.154578   -0.926706
  C      4.919010    2.231275   -2.552018
  C      3.725176    4.381230   -2.322266
  C      4.399748    3.425814   -3.128698
  O      0.110211    1.718785    1.639504
  C      0.166962    2.126179    2.851984
  C     -0.029946    3.654523    2.991764
  O      0.373480    1.415438    3.886083
  N     -1.182371    4.007675    2.141746
  H      0.842973    4.099118    2.470891
  C     -2.350906    3.220838    2.022103
  C     -1.100926    5.012969    1.145678
  C     -3.101951    3.786989    0.845735
  O     -2.648034    2.279852    2.742211
  C     -2.351938    4.860278    0.320103
  O     -0.195177    5.819269    1.030019
  C     -4.314552    3.391888    0.269279
  C     -2.774837    5.559542   -0.814059
  C     -4.794028    4.139287   -0.843795
  C     -4.021735    5.192114   -1.396828
  O     -1.854924   -0.460765    1.573451
  C     -2.252466   -0.729188    2.762540
  C     -3.775176   -0.978560    2.895958
  O     -1.533908   -0.803648    3.805361
  N     -4.170898   -1.855499    1.779148
  H     -4.249598   -0.000969    2.673661
  C     -3.370674   -2.910100    1.281747
  C     -5.309268   -1.617631    0.972951
  C     -4.035789   -3.356518    0.008374
  O     -2.358357   -3.344589    1.806808
  C     -5.243694   -2.643678   -0.127405
  O     -6.133372   -0.735062    1.141951
  C     -3.619518   -4.281360   -0.954089
  C     -6.108143   -2.873739   -1.199839
  C     -4.455536   -4.479675   -2.090960
  C     -5.687941   -3.783550   -2.211367
  C     -0.720215   -1.575563   -3.370433
  C     -1.832020   -2.442906   -3.541086
  C     -0.626985   -0.400412   -4.163840
  C     -2.849707   -2.123283   -4.450034
  H     -1.883062   -3.365151   -2.948428
  C     -1.649578   -0.084027   -5.068142
  H      0.238173    0.267468   -4.054260
  C     -2.766207   -0.936180   -5.206203
  H     -3.711447   -2.797301   -4.567776
  H     -1.583953    0.839440   -5.662719
  H     -3.570383   -0.677333   -5.912919
  C     -4.307456   -1.455008    4.296466
  C     -4.064524   -0.316416    5.323156
  H     -4.530283   -0.585604    6.296004
  H     -2.985903   -0.133948    5.487597
  H     -4.526279    0.634153    4.976080
  C     -3.642930   -2.773689    4.765888
  H     -4.057722   -3.063867    5.755925
  H     -3.850612   -3.604004    4.057859
  H     -2.544809   -2.669395    4.859405
  C     -5.838776   -1.683362    4.186669
  H     -6.249509   -1.924689    5.190583
  H     -6.362614   -0.785062    3.799600
  H     -6.080023   -2.535483    3.515330
  C     -0.069060    4.261911    4.435064
  C     -1.205216    3.666132    5.302064
  H     -1.172815    4.118177    6.317521
  H     -2.202894    3.887467    4.867938
  H     -1.110080    2.567400    5.401781
  C     -0.282704    5.792672    4.303123
  H     -0.236532    6.266886    5.307112
  H      0.489409    6.260772    3.656887
  H     -1.277050    6.028949    3.867582
  C      1.313458    4.015590    5.098757
  H      1.359719    4.547682    6.073165
  H      1.494627    2.938165    5.278099
  H      2.137960    4.399092    4.457800
  C      5.404289    0.327347    3.230628
  C      4.946129    1.499637    4.133189
  H      5.610175    1.557162    5.023704
  H      4.999340    2.473345    3.605411
  H      3.904309    1.359102    4.482164
  C      6.827943    0.623781    2.688098
  H      7.541308    0.719263    3.534969
  H      7.187150   -0.187465    2.018976
  H      6.853808    1.575371    2.115097
  C      5.453024   -0.985544    4.058789
  H      6.217489   -0.889582    4.861008
  H      4.475971   -1.201542    4.532039
  H      5.718887   -1.855510    3.422683
  C      1.015658   -5.645166    2.695646
  C     -0.386314   -5.678448    3.364771
  H     -0.449677   -6.543653    4.060333
  H     -0.580107   -4.752848    3.943312
  H     -1.194109   -5.780073    2.607523
  C      2.105289   -5.459569    3.778160
  H      2.008512   -4.480740    4.285096
  H      2.004018   -6.266222    4.538560
  H      3.126312   -5.521102    3.351272
  C      1.250179   -6.983507    1.947932
  H      1.217156   -7.833170    2.664226
  H      0.474907   -7.155990    1.168931
  H      2.243105   -6.997714    1.449750
  Cl     2.408859   -3.980808   -3.926180
  Cl     5.229935   -2.676206   -4.558228
  Cl     7.350823   -2.308661   -2.259474
  Cl     6.573136   -2.940499    0.751766
  Cl     5.682360    1.016384   -3.542920
  Cl     4.570936    3.701330   -4.840580
  Cl     3.068364    5.822218   -3.048677
  Cl     2.648081    5.296228    0.041784
  Cl    -1.788251    6.794216   -1.541039
  Cl    -4.559751    5.984350   -2.853536
  Cl    -6.331403    3.724662   -1.561060
  Cl    -5.188323    1.992853    0.823656
  Cl    -7.657810   -2.081734   -1.298848
  Cl    -6.673421   -4.004676   -3.632080
  Cl    -3.948630   -5.568762   -3.352666
  Cl    -2.081166   -5.093328   -0.831071

----------------------------
CARTESIAN COORDINATES (A.U.)
----------------------------
  NO LB      ZA    FRAG     MASS         X           Y           Z
   0 C     6.0000    0    12.011   -0.026435    0.049673   -1.535452
   1 C     6.0000    0    12.011    2.476038    0.061316   -2.928165
   2 O     8.0000    0    15.999    2.730548   -2.220275   -4.275883
   3 C     6.0000    0    12.011    0.398664   -3.482057   -4.297148
   4 H     1.0000    0     1.008    0.497525   -5.426464   -3.558959
   5 O     8.0000    0    15.999    4.151330    1.602333   -2.903438
   6 C     6.0000    0    12.011   -2.209589    1.524731   -2.478344
   7 C     6.0000    0    12.011   -4.525380    0.183759   -2.650399
   8 C     6.0000    0    12.011   -2.164445    4.025903   -3.495910
   9 C     6.0000    0    12.011   -6.609414    1.119461   -4.008850
  10 H     1.0000    0     1.008   -4.657922   -1.723487   -1.853610
  11 C     6.0000    0    12.011   -4.266586    4.988459   -4.792079
  12 C     6.0000    0    12.011   -6.468752    3.543297   -5.117201
  13 H     1.0000    0     1.008   -4.180558    6.907597   -5.574809
  14 H     1.0000    0     1.008   -8.053705    4.355121   -6.172484
  15 Br   35.0000    0    79.900    0.585885    6.319800   -2.949842
  16 O     8.0000    0    15.999   -8.634013   -0.474444   -4.236297
  17 C     6.0000    0    12.011  -10.663188    0.299951   -5.844734
  18 H     1.0000    0     1.008   -9.956697    0.781766   -7.767576
  19 H     1.0000    0     1.008  -11.963603   -1.327572   -5.971089
  20 H     1.0000    0     1.008  -11.676523    1.949808   -5.028646
  21 H     1.0000    0     1.008   -0.575828   -2.272825   -2.204666
  22 Rh   17.0000*   0   102.910    0.979060   -1.208334    6.924900
  23 Rh   17.0000*   0   102.910    0.383363   -0.585216    2.321899
  24 C     6.0000    0    12.011    1.844881   -8.543879    3.051413
  25 C     6.0000    0    12.011    1.208467   -5.804596    3.839047
  26 N     7.0000    0    14.007    4.068382   -8.352204    1.357364
  27 H     1.0000    0     1.008    0.304025   -9.059857    1.739111
  28 O     8.0000    0    15.999    1.278504   -5.081829    6.119910
  29 O     8.0000    0    15.999    0.707294   -4.425321    1.898460
  30 C     6.0000    0    12.011    6.391585   -7.148887    1.978591
  31 C     6.0000    0    12.011    3.722556   -8.470826   -1.300974
  32 C     6.0000    0    12.011    7.767113   -6.801534   -0.485728
  33 O     8.0000    0    15.999    7.003125   -6.417502    4.076770
  34 C     6.0000    0    12.011    6.070602   -7.389544   -2.459046
  35 O     8.0000    0    15.999    1.820500   -9.270235   -2.347163
  36 C     6.0000    0    12.011   10.215865   -5.946813   -0.989606
  37 C     6.0000    0    12.011    6.687208   -6.913546   -4.985901
  38 C     6.0000    0    12.011   10.890172   -5.462953   -3.552876
  39 C     6.0000    0    12.011    9.104699   -5.855445   -5.520302
  40 C     6.0000    0    12.011    8.457282    0.178687    3.756375
  41 C     6.0000    0    12.011    5.628725   -0.377169    4.203325
  42 N     7.0000    0    14.007    8.601136    2.150399    1.804662
  43 H     1.0000    0     1.008    9.190573   -1.526519    2.787981
  44 O     8.0000    0    15.999    4.823227   -0.756161    6.429540
  45 O     8.0000    0    15.999    4.319887   -0.443730    2.160218
  46 C     6.0000    0    12.011    7.244685    4.454617    1.846850
  47 C     6.0000    0    12.011    9.546369    1.594009   -0.635505
  48 C     6.0000    0    12.011    7.633261    5.608887   -0.725264
  49 O     8.0000    0    15.999    5.963059    5.215478    3.610358
  50 C     6.0000    0    12.011    8.958540    3.854522   -2.230568
  51 O     8.0000    0    15.999   10.577555   -0.381129   -1.223050
  52 C     6.0000    0    12.011    6.688820    7.851015   -1.751221
  53 C     6.0000    0    12.011    9.295582    4.216499   -4.822615
  54 C     6.0000    0    12.011    7.039562    8.279325   -4.388447
  55 C     6.0000    0    12.011    8.314319    6.473850   -5.912382
  56 O     8.0000    0    15.999    0.208269    3.248033    3.098214
  57 C     6.0000    0    12.011    0.315512    4.017896    5.389469
  58 C     6.0000    0    12.011   -0.056590    6.906048    5.653615
  59 O     8.0000    0    15.999    0.705775    2.674790    7.343633
  60 N     7.0000    0    14.007   -2.234357    7.573408    4.047313
  61 H     1.0000    0     1.008    1.592988    7.746210    4.669307
  62 C     6.0000    0    12.011   -4.442569    6.086502    3.821221
  63 C     6.0000    0    12.011   -2.080449    9.473139    2.165018
  64 C     6.0000    0    12.011   -5.861838    7.156372    1.598208
  65 O     8.0000    0    15.999   -5.004059    4.308296    5.182028
  66 C     6.0000    0    12.011   -4.444519    9.184594    0.604907
  67 O     8.0000    0    15.999   -0.368831   10.996825    1.946454
  68 C     6.0000    0    12.011   -8.153322    6.409739    0.508864
  69 C     6.0000    0    12.011   -5.243682   10.506012   -1.538349
  70 C     6.0000    0    12.011   -9.059400    7.822119   -1.594541
  71 C     6.0000    0    12.011   -7.599978    9.811674   -2.639622
  72 O     8.0000    0    15.999   -3.505298   -0.870720    2.973391
  73 C     6.0000    0    12.011   -4.256544   -1.377966    5.220444
  74 C     6.0000    0    12.011   -7.134049   -1.849210    5.472568
  75 O     8.0000    0    15.999   -2.898666   -1.518675    7.191090
  76 N     7.0000    0    14.007   -7.881855   -3.506385    3.362102
  77 H     1.0000    0     1.008   -8.030576   -0.001831    5.052487
  78 C     6.0000    0    12.011   -6.369651   -5.499292    2.422151
  79 C     6.0000    0    12.011  -10.033062   -3.056880    1.838611
  80 C     6.0000    0    12.011   -7.626536   -6.342900    0.015825
  81 O     8.0000    0    15.999   -4.456649   -6.320357    3.414372
  82 C     6.0000    0    12.011   -9.909146   -4.995827   -0.240761
  83 O     8.0000    0    15.999  -11.590393   -1.389066    2.157975
  84 C     6.0000    0    12.011   -6.839898   -8.090598   -1.802967
  85 C     6.0000    0    12.011  -11.542717   -5.430580   -2.267367
  86 C     6.0000    0    12.011   -8.419743   -8.465359   -3.951342
  87 C     6.0000    0    12.011  -10.748651   -7.149873   -4.178878
  88 C     6.0000    0    12.011   -1.361009   -2.977383   -6.369195
  89 C     6.0000    0    12.011   -3.462016   -4.616423   -6.691683
  90 C     6.0000    0    12.011   -1.184830   -0.756669   -7.868517
  91 C     6.0000    0    12.011   -5.385166   -4.012423   -8.409346
  92 H     1.0000    0     1.008   -3.558471   -6.359214   -5.571721
  93 C     6.0000    0    12.011   -3.117251   -0.158788   -9.577400
  94 H     1.0000    0     1.008    0.450082    0.505441   -7.661441
  95 C     6.0000    0    12.011   -5.227374   -1.769124   -9.838298
  96 H     1.0000    0     1.008   -7.013618   -5.286133   -8.631846
  97 H     1.0000    0     1.008   -2.993237    1.586312  -10.700988
  98 H     1.0000    0     1.008   -6.747046   -1.279974  -11.173798
  99 C     6.0000    0    12.011   -8.139912   -2.749567    8.119144
 100 C     6.0000    0    12.011   -7.680837   -0.597940   10.059307
 101 H     1.0000    0     1.008   -8.560994   -1.106631   11.897723
 102 H     1.0000    0     1.008   -5.642539   -0.253125   10.370055
 103 H     1.0000    0     1.008   -8.553428    1.198375    9.403428
 104 C     6.0000    0    12.011   -6.884140   -5.241513    9.006223
 105 H     1.0000    0     1.008   -7.667983   -5.789870   10.877122
 106 H     1.0000    0     1.008   -7.276602   -6.810581    7.668242
 107 H     1.0000    0     1.008   -4.808992   -5.044425    9.182945
 108 C     6.0000    0    12.011  -11.033688   -3.181093    7.911658
 109 H     1.0000    0     1.008  -11.809860   -3.637135    9.808780
 110 H     1.0000    0     1.008  -12.023598   -1.483552    7.180203
 111 H     1.0000    0     1.008  -11.489578   -4.791368    6.643011
 112 C     6.0000    0    12.011   -0.130504    8.053845    8.381056
 113 C     6.0000    0    12.011   -2.277528    6.927985   10.019449
 114 H     1.0000    0     1.008   -2.216299    7.782227   11.938385
 115 H     1.0000    0     1.008   -4.162866    7.346248    9.199070
 116 H     1.0000    0     1.008   -2.097747    4.851683   10.207887
 117 C     6.0000    0    12.011   -0.534233   10.946564    8.131724
 118 H     1.0000    0     1.008   -0.446981   11.842698   10.028988
 119 H     1.0000    0     1.008    0.924849   11.831144    6.910515
 120 H     1.0000    0     1.008   -2.413275   11.393062    7.308671
 121 C     6.0000    0    12.011    2.482076    7.588365    9.635254
 122 H     1.0000    0     1.008    2.569497    8.593874   11.476619
 123 H     1.0000    0     1.008    2.824436    5.552327    9.974162
 124 H     1.0000    0     1.008    4.040159    8.313079    8.424021
 125 C     6.0000    0    12.011   10.212626    0.618596    6.105002
 126 C     6.0000    0    12.011    9.346829    2.833903    7.810595
 127 H     1.0000    0     1.008   10.601694    2.942610    9.493425
 128 H     1.0000    0     1.008    9.447383    4.673945    6.813239
 129 H     1.0000    0     1.008    7.378075    2.568331    8.470062
 130 C     6.0000    0    12.011   12.902942    1.178775    5.079769
 131 H     1.0000    0     1.008   14.251007    1.359210    6.680123
 132 H     1.0000    0     1.008   13.581745   -0.354258    3.815312
 133 H     1.0000    0     1.008   12.951820    2.977020    3.996954
 134 C     6.0000    0    12.011   10.304722   -1.862408    7.670000
 135 H     1.0000    0     1.008   11.749351   -1.681066    9.185974
 136 H     1.0000    0     1.008    8.458359   -2.270585    8.564313
 137 H     1.0000    0     1.008   10.807130   -3.506406    6.467934
 138 C     6.0000    0    12.011    1.919315  -10.667818    5.094033
 139 C     6.0000    0    12.011   -0.730028  -10.730712    6.358496
 140 H     1.0000    0     1.008   -0.849766  -12.365712    7.672917
 141 H     1.0000    0     1.008   -1.096243   -8.981581    7.451780
 142 H     1.0000    0     1.008   -2.256539  -10.922755    4.927504
 143 C     6.0000    0    12.011    3.978420  -10.317090    7.139688
 144 H     1.0000    0     1.008    3.795538   -8.467371    8.097658
 145 H     1.0000    0     1.008    3.787045  -11.841443    8.576635
 146 H     1.0000    0     1.008    5.907873  -10.433371    6.332986
 147 C     6.0000    0    12.011    2.362496  -13.196916    3.681058
 148 H     1.0000    0     1.008    2.300092  -14.802546    5.034657
 149 H     1.0000    0     1.008    0.897444  -13.522861    2.208959
 150 H     1.0000    0     1.008    4.238854  -13.223763    2.739630
 151 Cl   17.0000    0    35.453    4.552084   -7.522637   -7.419405
 152 Cl   17.0000    0    35.453    9.883145   -5.057296   -8.613803
 153 Cl   17.0000    0    35.453   13.891042   -4.362737   -4.269787
 154 Cl   17.0000    0    35.453   12.421427   -5.556738    1.420632
 155 Cl   17.0000    0    35.453   10.738104    1.920687   -6.695149
 156 Cl   17.0000    0    35.453    8.637817    6.994500   -9.147371
 157 Cl   17.0000    0    35.453    5.798368   11.002398   -5.761165
 158 Cl   17.0000    0    35.453    5.004148   10.008420    0.078960
 159 Cl   17.0000    0    35.453   -3.379305   12.839208   -2.912142
 160 Cl   17.0000    0    35.453   -8.616681   11.308783   -5.392402
 161 Cl   17.0000    0    35.453  -11.964618    7.038591   -2.949976
 162 Cl   17.0000    0    35.453   -9.804510    3.765946    1.556484
 163 Cl   17.0000    0    35.453  -14.471164   -3.933907   -2.454467
 164 Cl   17.0000    0    35.453  -12.610938   -7.567741   -6.863636
 165 Cl   17.0000    0    35.453   -7.461829  -10.523435   -6.335621
 166 Cl   17.0000    0    35.453   -3.932834   -9.624995   -1.570497
* core charge reduced due to ECP

--------------------------------
INTERNAL COORDINATES (ANGSTROEM)
--------------------------------
 C      0   0   0     0.000000000000     0.00000000     0.00000000
 C      1   0   0     1.515532423107     0.00000000     0.00000000
 O      2   1   0     1.408722894980   109.04103991     0.00000000
 C      3   2   1     1.403091077887   109.13771631    12.02012021
 H      4   3   2     1.101834965868   113.56545595   235.18889133
 O      2   1   3     1.204613015761   129.83108877   183.82251369
 C      1   2   3     1.480845452761   121.04333655   256.61167450
 C      7   1   2     1.419014074681   115.57938042   130.58649799
 C      7   1   2     1.429105619266   127.02014838   318.46900796
 C      8   7   1     1.406469057517   122.26926294   194.31762880
 H      8   7   1     1.096052056215   119.41029765     8.51123669
 C      9   7   1     1.402625564861   120.48604595   166.65000547
 C     12   9   7     1.404438014693   121.34760912     0.33982553
 H     12   9   7     1.097728016351   119.18271479   180.64947370
 H     13  12   9     1.095378708605   118.96197102   181.13467022
 Br     9   7   1     1.917087847679   122.84185864   341.41432832
 O     10   8   7     1.368848380847   116.21359546   173.60732879
 C     17  10   8     1.430179641869   117.60790521   187.00527369
 H     18  17  10     1.113612726047   110.93600185    53.77601832
 H     18  17  10     1.104431679417   106.28436135   172.62710850
 H     18  17  10     1.111886518611   110.85078755   291.64595569
 H      1   2   3     1.311642002581    93.79513561     4.60932616
 Rh     1   2   3     4.557415470476   112.10421657   105.78284427
 Rh     1   2   3     2.080021381376   112.75429317   104.76972255
 C      5   4   3     3.932703793027   135.69855509    66.71349381
 C     25   5   4     1.545438525253    78.86798937    17.80648320
 N     25   5   4     1.482687754411    65.00033727   264.38852108
 H     25   5   4     1.105284700216    53.91584313   134.33060727
 O     26  25   5     1.266673421600   122.26448455   181.80116751
 O     26  25   5     1.287483767369   111.19310733   359.67640003
 C     27  25   5     1.423001318672   125.20734041   124.37107819
 C     27  25   5     1.419973711664   119.58249007   329.25211755
 C     31  27  25     1.504724916337   105.80565771   195.05561508
 O     31  27  25     1.219551236428   125.56213128    10.53521552
 C     33  31  27     1.411811582036   107.84707911     9.86698990
 O     32  27  25     1.224148727740   124.69958993   343.00093246
 C     33  31  27     1.398152941297   130.77812460   186.78337258
 C     35  33  31     1.399248246353   121.25576709   171.11667969
 C     37  33  31     1.425753438594   118.13094687   189.00418876
 C     39  37  33     1.421186326671   120.28585676   359.79931663
 C     34  31  27     3.578386104793   108.87427280   236.64735773
 C     41  34  31     1.543663135673    66.31870638    86.80153876
 N     41  34  31     1.470077240421   137.45529222   357.06231846
 H     41  34  31     1.107894047606    45.79304475   302.16562942
 O     42  41  34     1.268756043438   119.87754173    84.91727990
 O     42  41  34     1.284470722023   113.52242561   266.07492295
 C     43  41  34     1.415107624188   125.04441449   123.75984657
 C     43  41  34     1.415729880810   120.76255934   322.42679615
 C     47  43  41     1.505980966567   105.42425699   190.01990517
 O     47  43  41     1.221864486354   125.27725043     7.21803606
 C     49  47  43     1.410046421037   108.14664031     5.80153659
 O     48  43  41     1.219374289884   124.67627872   350.54239828
 C     49  47  43     1.397237805310   130.29747729   178.51653836
 C     51  49  47     1.396399340314   121.87890923   170.72143736
 C     53  49  47     1.425976177476   117.94910973   189.93621195
 C     55  53  49     1.420633551224   120.69436548   359.93691066
 O     24   1   2     2.071721693236    91.82126986    97.43279534
 C     57  24   1     1.280350849430   119.82452665   178.32967520
 C     58  57  24     1.547303005620   113.21602472   184.65153885
 O     58  57  24     1.271677315676   126.82930648     5.36149561
 N     59  58  57     1.474900103754   106.49181946    45.63938342
 H     59  58  57     1.109486807815   104.67144441   295.44987156
 C     61  59  58     1.413824939037   124.14652795    39.59164158
 C     61  59  58     1.417533341790   121.99758347   233.88604774
 C     63  61  59     1.506133200700   105.60720233   192.31205871
 O     63  61  59     1.221595363549   125.43915846    11.97937721
 C     65  63  61     1.410942159379   108.17032135     0.50965650
 O     64  61  59     1.218145289069   125.36992533   347.25070143
 C     65  63  61     1.399574044250   130.36269147   179.34236919
 C     67  65  63     1.397904556163   121.46348054   177.74515431
 C     69  65  63     1.423880693476   117.74558939   179.22273061
 C     71  69  65     1.418000941067   120.74402344     3.95716407
 O     24   1   2     2.091933455067    94.06213418   187.21966664
 C     73  24   1     1.282194680465   118.22544767   177.54587542
 C     74  73  24     1.548751917257   114.73567565   186.52351839
 O     74  73  24     1.268599830130   126.79867180     6.66873166
 N     75  74  73     1.474070041452   107.12537816    44.59669178
 H     75  74  73     1.109133154123   105.15105024   293.32605125
 C     77  75  74     1.414195698685   123.93207180    37.27690842
 C     77  75  74     1.415069272203   123.20272223   226.19243000
 C     79  77  75     1.504375548551   105.59460249   190.22580392
 O     79  77  75     1.220350545266   125.70176395    10.44264185
 C     81  79  77     1.409117202885   108.08531831   354.81752046
 O     80  77  75     1.219277016341   125.90486411   355.15152281
 C     81  79  77     1.398195013857   130.33958796   173.76608558
 C     83  81  79     1.396536724071   121.41716362   181.99007973
 C     85  81  79     1.425037054322   117.81073959   181.50756001
 C     87  85  81     1.420531571384   120.55694153   358.19375748
 C      4   3   2     1.463107935965   118.61214819    90.35364691
 C     89   4   3     1.420393144197   118.47323930   166.91379472
 C     89   4   3     1.420973741260   121.84599715   339.70876602
 C     90  89   4     1.401439316846   120.46854373   170.89778661
 H     90  89   4     1.097444591199   118.99117712   351.06934132
 C     91  89   4     1.401270144932   119.94550032   189.52868084
 H     91  89   4     1.098439727870   119.92161494     8.45172349
 C     92  90  89     1.409956502581   119.79204679     0.35654711
 H     92  90  89     1.100345068825   119.89442327   180.57821400
 H     94  91  89     1.100281668321   119.65066189   178.54862788
 H     96  92  90     1.101430121724   119.91661207   180.68434285
 C     75  74  73     1.572179173367   117.28413760   173.96297872
 C    100  75  74     1.552256439893   108.29566555    64.82846095
 H    101 100  75     1.111677496637   109.61100212   173.97100290
 H    101 100  75     1.106236265517   111.83303740   294.42420109
 H    101 100  75     1.112322279540   110.82359732    55.08052231
 C    100  75  74     1.549474555622   112.49393340   301.89944498
 H    105 100  75     1.111948261529   109.38114156   180.18131886
 H    105 100  75     1.110792454597   111.27635672   298.95525045
 H    105 100  75     1.107019601618   111.76732385    59.84602991
 C    100  75  74     1.552141060898   108.39647686   181.76879992
 H    109 100  75     1.111208188241   109.43343964   185.47733348
 H    109 100  75     1.109581700915   111.79829415   305.64583006
 H    109 100  75     1.111308402997   111.69798670    66.68520641
 C     59  58  57     1.566385960592   117.99727597   176.32533445
 C    113  59  58     1.548383697013   112.64746703   300.76727903
 H    114 113  59     1.112001540320   109.48303406   178.94019463
 H    114 113  59     1.110322456670   111.32720435   297.77190737
 H    114 113  59     1.107342018714   111.66413044    58.66264281
 C    113  59  58     1.551219335019   107.92166540   180.33682643
 H    118 113  59     1.111307645749   109.78701657   184.37007775
 H    118 113  59     1.110358979099   111.70004686   304.75293212
 H    118 113  59     1.110966584163   111.49908726    65.35276137
 C    113  59  58     1.553228397118   108.05932413    63.32690713
 H    122 113  59     1.111185370246   109.62237338   172.83916729
 H    122 113  59     1.107172249539   111.66556279   293.09783809
 H    122 113  59     1.112521104455   111.02720773    53.57490509
 C     41  34  31     1.568972710484   103.56276662   202.55229743
 C    126  41  34     1.548803017953   113.50218307   231.61283765
 H    127 126  41     1.112332315887   109.21319598   176.18532705
 H    127 126  41     1.108822933145   111.90673231   295.56219422
 H    127 126  41     1.107665359777   111.45659171    56.42734681
 C    126  41  34     1.552096204806   107.12703091   110.87611380
 H    131 126  41     1.111394136295   109.80410880   184.32047012
 H    131 126  41     1.111248843531   111.56413161   304.40236582
 H    131 126  41     1.111090757916   111.41925134    65.05529082
 C    126  41  34     1.553032040889   108.39460161   353.85412179
 H    135 126  41     1.112281783376   109.46530907   171.95552335
 H    135 126  41     1.106911587848   111.42305250   291.80524105
 H    135 126  41     1.110024693041   111.37560898    52.04769562
 C     25   5   4     1.559857275966   157.39743086   164.79227752
 C    139  25   5     1.553821561806   106.92126759   276.28593234
 H    140 139  25     1.111935725498   109.72221341   173.31887623
 H    140 139  25     1.108603073931   111.38129886   293.16834441
 H    140 139  25     1.111883508356   111.35756690    53.46527142
 C    139  25   5     1.547119427441   114.59512313   154.52749025
 H    144 139  25     1.106551447998   111.41167292    55.94278232
 H    144 139  25     1.113172510373   109.08398313   175.90954388
 H    144 139  25     1.108380639114   111.87865855   295.15911810
 C    139  25   5     1.550881348627   106.94924659    32.93192671
 H    148 139  25     1.111798015169   110.14424307   183.91434781
 H    148 139  25     1.112492524592   111.46976505   304.00187629
 H    148 139  25     1.110985681928   111.24608239    64.44534995
 Cl    38  35  33     1.743210414263   121.43398393   182.51190040
 Cl    40  39  37     1.740081224323   119.75671363   175.71198080
 Cl    39  37  33     1.733381027032   119.85600295   179.18759889
 Cl    37  33  31     1.741138446390   121.32674589    10.66652185
 Cl    54  51  49     1.743717333166   121.23440252   184.71054111
 Cl    56  55  53     1.742341636857   119.87040172   178.09203098
 Cl    55  53  49     1.742274766048   119.36885644   177.88260293
 Cl    53  49  47     1.742438527667   121.56110665     7.03753153
 Cl    70  67  65     1.739618274815   121.50075479   185.16988762
 Cl    72  71  69     1.743300689272   119.68437092   173.95037568
 Cl    71  69  65     1.746397681364   119.52971281   182.29904944
 Cl    69  65  63     1.740146128862   122.05890784   356.28215231
 Cl    86  83  81     1.743141564244   121.26921140   175.14975365
 Cl    88  87  85     1.743127352389   119.82806059   178.19472102
 Cl    87  85  81     1.742115443029   119.60921025   177.33343569
 Cl    85  81  79     1.743832657468   121.47100248   357.54869332

---------------------------
INTERNAL COORDINATES (A.U.)
---------------------------
 C      0   0   0     0.000000000000     0.00000000     0.00000000
 C      1   0   0     2.863941226751     0.00000000     0.00000000
 O      2   1   0     2.662100470097   109.04103991     0.00000000
 C      3   2   1     2.651457878154   109.13771631    12.02012021
 H      4   3   2     2.082166330270   113.56545595   235.18889133
 O      2   1   3     2.276388697146   129.83108877   183.82251369
 C      1   2   3     2.798392352381   121.04333655   256.61167450
 C      7   1   2     2.681547981328   115.57938042   130.58649799
 C      7   1   2     2.700618236862   127.02014838   318.46900796
 C      8   7   1     2.657841334542   122.26926294   194.31762880
 H      8   7   1     2.071238214768   119.41029765     8.51123669
 C      9   7   1     2.650578186025   120.48604595   166.65000547
 C     12   9   7     2.654003219837   121.34760912     0.33982553
 H     12   9   7     2.074405320435   119.18271479   180.64947370
 H     13  12   9     2.069965772193   118.96197102   181.13467022
 Br     9   7   1     3.622771006781   122.84185864   341.41432832
 O     10   8   7     2.586748558663   116.21359546   173.60732879
 C     17  10   8     2.702647845442   117.60790521   187.00527369
 H     18  17  10     2.104423071478   110.93600185    53.77601832
 H     18  17  10     2.087073407725   106.28436135   172.62710850
 H     18  17  10     2.101161012175   110.85078755   291.64595569
 H      1   2   3     2.478644170626    93.79513561     4.60932616
 Rh     1   2   3     8.612267117695   112.10421657   105.78284427
 Rh     1   2   3     3.930670763501   112.75429317   104.76972255
 C      5   4   3     7.431733134654   135.69855509    66.71349381
 C     25   5   4     2.920455569539    78.86798937    17.80648320
 N     25   5   4     2.801873797955    65.00033727   264.38852108
 H     25   5   4     2.088685383422    53.91584313   134.33060727
 O     26  25   5     2.393665867942   122.26448455   181.80116751
 O     26  25   5     2.432991722196   111.19310733   359.67640003
 C     27  25   5     2.689082780498   125.20734041   124.37107819
 C     27  25   5     2.683361432413   119.58249007   329.25211755
 C     31  27  25     2.843517998765   105.80565771   195.05561508
 O     31  27  25     2.304617843135   125.56213128    10.53521552
 C     33  31  27     2.667937242746   107.84707911     9.86698990
 O     32  27  25     2.313305842616   124.69958993   343.00093246
 C     33  31  27     2.642126152388   130.77812460   186.78337258
 C     35  33  31     2.644195978976   121.25576709   171.11667969
 C     37  33  31     2.694283533440   118.13094687   189.00418876
 C     39  37  33     2.685652942682   120.28585676   359.79931663
 C     34  31  27     6.762169739488   108.87427280   236.64735773
 C     41  34  31     2.917100569452    66.31870638    86.80153876
 N     41  34  31     2.778043380107   137.45529222   357.06231846
 H     41  34  31     2.093616335377    45.79304475   302.16562942
 O     42  41  34     2.397601452856   119.87754173    84.91727990
 O     42  41  34     2.427297891663   113.52242561   266.07492295
 C     43  41  34     2.674165859739   125.04441449   123.75984657
 C     43  41  34     2.675341754340   120.76255934   322.42679615
 C     47  43  41     2.845891589709   105.42425699   190.01990517
 O     47  43  41     2.308989251973   125.27725043     7.21803606
 C     49  47  43     2.664601571875   108.14664031     5.80153659
 O     48  43  41     2.304283462625   124.67627872   350.54239828
 C     49  47  43     2.640396795997   130.29747729   178.51653836
 C     51  49  47     2.638812326782   121.87890923   170.72143736
 C     53  49  47     2.694704448925   117.94910973   189.93621195
 C     55  53  49     2.684608348474   120.69436548   359.93691066
 O     24   1   2     3.914986625919    91.82126986    97.43279534
 C     57  24   1     2.419512460757   119.82452665   178.32967520
 C     58  57  24     2.923978926815   113.21602472   184.65153885
 O     58  57  24     2.403121857349   126.82930648     5.36149561
 N     59  58  57     2.787157270987   106.49181946    45.63938342
 H     59  58  57     2.096626215968   104.67144441   295.44987156
 C     61  59  58     2.671741936088   124.14652795    39.59164158
 C     61  59  58     2.678749801684   121.99758347   233.88604774
 C     63  61  59     2.846179270529   105.60720233   192.31205871
 O     63  61  59     2.308480683575   125.43915846    11.97937721
 C     65  63  61     2.666294272030   108.17032135     0.50965650
 O     64  61  59     2.301960987668   125.36992533   347.25070143
 C     65  63  61     2.644811647777   130.36269147   179.34236919
 C     67  65  63     2.641656772509   121.46348054   177.74515431
 C     69  65  63     2.690744558047   117.74558939   179.22273061
 C     71  69  65     2.679633436259   120.74402344     3.95716407
 O     24   1   2     3.953181320465    94.06213418   187.21966664
 C     73  24   1     2.422996796450   118.22544767   177.54587542
 C     74  73  24     2.926716973002   114.73567565   186.52351839
 O     74  73  24     2.397306252484   126.79867180     6.66873166
 N     75  74  73     2.785588680561   107.12537816    44.59669178
 H     75  74  73     2.095957907344   105.15105024   293.32605125
 C     77  75  74     2.672442570283   123.93207180    37.27690842
 C     77  75  74     2.674093384991   123.20272223   226.19243000
 C     79  77  75     2.842857789329   105.59460249   190.22580392
 O     79  77  75     2.306128317934   125.70176395    10.44264185
 C     81  79  77     2.662845604049   108.08531831   354.81752046
 O     80  77  75     2.304099642269   125.90486411   355.15152281
 C     81  79  77     2.642205658004   130.33958796   173.76608558
 C     83  81  79     2.639071944457   121.41716362   181.99007973
 C     85  81  79     2.692929763358   117.81073959   181.50756001
 C     87  85  81     2.684415634505   120.55694153   358.19375748
 C      4   3   2     2.764873303341   118.61214819    90.35364691
 C     89   4   3     2.684154045032   118.47323930   166.91379472
 C     89   4   3     2.685251214475   121.84599715   339.70876602
 C     90  89   4     2.648336502149   120.46854373   170.89778661
 H     90  89   4     2.073869724520   118.99117712   351.06934132
 C     91  89   4     2.648016813562   119.94550032   189.52868084
 H     91  89   4     2.075750260294   119.92161494     8.45172349
 C     92  90  89     2.664431650619   119.79204679     0.35654711
 H     92  90  89     2.079350832890   119.89442327   180.57821400
 H     94  91  89     2.079231023300   119.65066189   178.54862788
 H     96  92  90     2.081401285710   119.91661207   180.68434285
 C     75  74  73     2.970988071118   117.28413760   173.96297872
 C    100  75  74     2.933339561013   108.29566555    64.82846095
 H    101 100  75     2.100766017887   109.61100212   173.97100290
 H    101 100  75     2.090483581240   111.83303740   294.42420109
 H    101 100  75     2.101984480990   110.82359732    55.08052231
 C    100  75  74     2.928082561606   112.49393340   301.89944498
 H    105 100  75     2.101277689379   109.38114156   180.18131886
 H    105 100  75     2.099093530815   111.27635672   298.95525045
 H    105 100  75     2.091963871940   111.76732385    59.84602991
 C    100  75  74     2.933121526311   108.39647686   181.76879992
 H    109 100  75     2.099879153546   109.43343964   185.47733348
 H    109 100  75     2.096805537940   111.79829415   305.64583006
 H    109 100  75     2.100068531989   111.69798670    66.68520641
 C     59  58  57     2.960040485538   117.99727597   176.32533445
 C    113  59  58     2.926021137584   112.64746703   300.76727903
 H    114 113  59     2.101378371704   109.48303406   178.94019463
 H    114 113  59     2.098205363448   111.32720435   297.77190737
 H    114 113  59     2.092573151952   111.66413044    58.66264281
 C    113  59  58     2.931379716830   107.92166540   180.33682643
 H    118 113  59     2.100067100999   109.78701657   184.37007775
 H    118 113  59     2.098274380837   111.70004686   304.75293212
 H    118 113  59     2.099422588005   111.49908726    65.35276137
 C    113  59  58     2.935176293983   108.05932413    63.32690713
 H    122 113  59     2.099836033785   109.62237338   172.83916729
 H    122 113  59     2.092252334707   111.66556279   293.09783809
 H    122 113  59     2.102360205627   111.02720773    53.57490509
 C     41  34  31     2.964928734411   103.56276662   202.55229743
 C    126  41  34     2.926813539322   113.50218307   231.61283765
 H    127 126  41     2.102003446936   109.21319598   176.18532705
 H    127 126  41     2.095371674656   111.90673231   295.56219422
 H    127 126  41     2.093184178010   111.45659171    56.42734681
 C    126  41  34     2.933036760581   107.12703091   110.87611380
 H    131 126  41     2.100230544443   109.80410880   184.32047012
 H    131 126  41     2.099955980910   111.56413161   304.40236582
 H    131 126  41     2.099657242392   111.41925134    65.05529082
 C    126  41  34     2.934805234484   108.39460161   353.85412179
 H    135 126  41     2.101907954330   109.46530907   171.95552335
 H    135 126  41     2.091759755497   111.42305250   291.80524105
 H    135 126  41     2.097642671738   111.37560898    52.04769562
 C     25   5   4     2.947703059581   157.39743086   164.79227752
 C    139  25   5     2.936297212795   106.92126759   276.28593234
 H    140 139  25     2.101253999714   109.72221341   173.31887623
 H    140 139  25     2.094956200953   111.38129886   293.16834441
 H    140 139  25     2.101155323616   111.35756690    53.46527142
 C    139  25   5     2.923632014333   114.59512313   154.52749025
 H    144 139  25     2.091079189810   111.41167292    55.94278232
 H    144 139  25     2.103591184414   109.08398313   175.90954388
 H    144 139  25     2.094535860065   111.87865855   295.15911810
 C    139  25   5     2.930741015111   106.94924659    32.93192671
 H    148 139  25     2.100993764907   110.14424307   183.91434781
 H    148 139  25     2.102306197514   111.46976505   304.00187629
 H    148 139  25     2.099458677552   111.24608239    64.44534995
 Cl    38  35  33     3.294190276756   121.43398393   182.51190040
 Cl    40  39  37     3.288276964748   119.75671363   175.71198080
 Cl    39  37  33     3.275615426825   119.85600295   179.18759889
 Cl    37  33  31     3.290274824919   121.32674589    10.66652185
 Cl    54  51  49     3.295148214656   121.23440252   184.71054111
 Cl    56  55  53     3.292548525387   119.87040172   178.09203098
 Cl    55  53  49     3.292422157873   119.36885644   177.88260293
 Cl    53  49  47     3.292731622484   121.56110665     7.03753153
 Cl    70  67  65     3.287402116966   121.50075479   185.16988762
 Cl    72  71  69     3.294360871800   119.68437092   173.95037568
 Cl    71  69  65     3.300213338694   119.52971281   182.29904944
 Cl    69  65  63     3.288399616553   122.05890784   356.28215231
 Cl    86  83  81     3.294060169076   121.26921140   175.14975365
 Cl    88  87  85     3.294033312562   119.82806059   178.19472102
 Cl    87  85  81     3.292121081000   119.60921025   177.33343569
 Cl    85  81  79     3.295366146003   121.47100248   357.54869332

---------------------
BASIS SET INFORMATION
---------------------
There are 7 groups of distinct atoms

 Group   1 Type C   : 7s4p1d contracted to 3s2p1d pattern {511/31/1}
 Group   2 Type O   : 7s4p1d contracted to 3s2p1d pattern {511/31/1}
 Group   3 Type H   : 4s contracted to 2s pattern {31}
 Group   4 Type Br  : 14s10p6d contracted to 5s4p3d pattern {63311/5311/411}
 Group   5 Type Rh  : 7s6p5d contracted to 5s3p2d pattern {31111/411/41}
 Group   6 Type N   : 7s4p1d contracted to 3s2p1d pattern {511/31/1}
 Group   7 Type Cl  : 10s7p1d contracted to 4s3p1d pattern {5311/511/1}

Atom   0C    basis set group =>   1
Atom   1C    basis set group =>   1
Atom   2O    basis set group =>   2
Atom   3C    basis set group =>   1
Atom   4H    basis set group =>   3
Atom   5O    basis set group =>   2
Atom   6C    basis set group =>   1
Atom   7C    basis set group =>   1
Atom   8C    basis set group =>   1
Atom   9C    basis set group =>   1
Atom  10H    basis set group =>   3
Atom  11C    basis set group =>   1
Atom  12C    basis set group =>   1
Atom  13H    basis set group =>   3
Atom  14H    basis set group =>   3
Atom  15Br   basis set group =>   4
Atom  16O    basis set group =>   2
Atom  17C    basis set group =>   1
Atom  18H    basis set group =>   3
Atom  19H    basis set group =>   3
Atom  20H    basis set group =>   3
Atom  21H    basis set group =>   3
Atom  22Rh   basis set group =>   5
Atom  23Rh   basis set group =>   5
Atom  24C    basis set group =>   1
Atom  25C    basis set group =>   1
Atom  26N    basis set group =>   6
Atom  27H    basis set group =>   3
Atom  28O    basis set group =>   2
Atom  29O    basis set group =>   2
Atom  30C    basis set group =>   1
Atom  31C    basis set group =>   1
Atom  32C    basis set group =>   1
Atom  33O    basis set group =>   2
Atom  34C    basis set group =>   1
Atom  35O    basis set group =>   2
Atom  36C    basis set group =>   1
Atom  37C    basis set group =>   1
Atom  38C    basis set group =>   1
Atom  39C    basis set group =>   1
Atom  40C    basis set group =>   1
Atom  41C    basis set group =>   1
Atom  42N    basis set group =>   6
Atom  43H    basis set group =>   3
Atom  44O    basis set group =>   2
Atom  45O    basis set group =>   2
Atom  46C    basis set group =>   1
Atom  47C    basis set group =>   1
Atom  48C    basis set group =>   1
Atom  49O    basis set group =>   2
Atom  50C    basis set group =>   1
Atom  51O    basis set group =>   2
Atom  52C    basis set group =>   1
Atom  53C    basis set group =>   1
Atom  54C    basis set group =>   1
Atom  55C    basis set group =>   1
Atom  56O    basis set group =>   2
Atom  57C    basis set group =>   1
Atom  58C    basis set group =>   1
Atom  59O    basis set group =>   2
Atom  60N    basis set group =>   6
Atom  61H    basis set group =>   3
Atom  62C    basis set group =>   1
Atom  63C    basis set group =>   1
Atom  64C    basis set group =>   1
Atom  65O    basis set group =>   2
Atom  66C    basis set group =>   1
Atom  67O    basis set group =>   2
Atom  68C    basis set group =>   1
Atom  69C    basis set group =>   1
Atom  70C    basis set group =>   1
Atom  71C    basis set group =>   1
Atom  72O    basis set group =>   2
Atom  73C    basis set group =>   1
Atom  74C    basis set group =>   1
Atom  75O    basis set group =>   2
Atom  76N    basis set group =>   6
Atom  77H    basis set group =>   3
Atom  78C    basis set group =>   1
Atom  79C    basis set group =>   1
Atom  80C    basis set group =>   1
Atom  81O    basis set group =>   2
Atom  82C    basis set group =>   1
Atom  83O    basis set group =>   2
Atom  84C    basis set group =>   1
Atom  85C    basis set group =>   1
Atom  86C    basis set group =>   1
Atom  87C    basis set group =>   1
Atom  88C    basis set group =>   1
Atom  89C    basis set group =>   1
Atom  90C    basis set group =>   1
Atom  91C    basis set group =>   1
Atom  92H    basis set group =>   3
Atom  93C    basis set group =>   1
Atom  94H    basis set group =>   3
Atom  95C    basis set group =>   1
Atom  96H    basis set group =>   3
Atom  97H    basis set group =>   3
Atom  98H    basis set group =>   3
Atom  99C    basis set group =>   1
Atom 100C    basis set group =>   1
Atom 101H    basis set group =>   3
Atom 102H    basis set group =>   3
Atom 103H    basis set group =>   3
Atom 104C    basis set group =>   1
Atom 105H    basis set group =>   3
Atom 106H    basis set group =>   3
Atom 107H    basis set group =>   3
Atom 108C    basis set group =>   1
Atom 109H    basis set group =>   3
Atom 110H    basis set group =>   3
Atom 111H    basis set group =>   3
Atom 112C    basis set group =>   1
Atom 113C    basis set group =>   1
Atom 114H    basis set group =>   3
Atom 115H    basis set group =>   3
Atom 116H    basis set group =>   3
Atom 117C    basis set group =>   1
Atom 118H    basis set group =>   3
Atom 119H    basis set group =>   3
Atom 120H    basis set group =>   3
Atom 121C    basis set group =>   1
Atom 122H    basis set group =>   3
Atom 123H    basis set group =>   3
Atom 124H    basis set group =>   3
Atom 125C    basis set group =>   1
Atom 126C    basis set group =>   1
Atom 127H    basis set group =>   3
Atom 128H    basis set group =>   3
Atom 129H    basis set group =>   3
Atom 130C    basis set group =>   1
Atom 131H    basis set group =>   3
Atom 132H    basis set group =>   3
Atom 133H    basis set group =>   3
Atom 134C    basis set group =>   1
Atom 135H    basis set group =>   3
Atom 136H    basis set group =>   3
Atom 137H    basis set group =>   3
Atom 138C    basis set group =>   1
Atom 139C    basis set group =>   1
Atom 140H    basis set group =>   3
Atom 141H    basis set group =>   3
Atom 142H    basis set group =>   3
Atom 143C    basis set group =>   1
Atom 144H    basis set group =>   3
Atom 145H    basis set group =>   3
Atom 146H    basis set group =>   3
Atom 147C    basis set group =>   1
Atom 148H    basis set group =>   3
Atom 149H    basis set group =>   3
Atom 150H    basis set group =>   3
Atom 151Cl   basis set group =>   7
Atom 152Cl   basis set group =>   7
Atom 153Cl   basis set group =>   7
Atom 154Cl   basis set group =>   7
Atom 155Cl   basis set group =>   7
Atom 156Cl   basis set group =>   7
Atom 157Cl   basis set group =>   7
Atom 158Cl   basis set group =>   7
Atom 159Cl   basis set group =>   7
Atom 160Cl   basis set group =>   7
Atom 161Cl   basis set group =>   7
Atom 162Cl   basis set group =>   7
Atom 163Cl   basis set group =>   7
Atom 164Cl   basis set group =>   7
Atom 165Cl   basis set group =>   7
Atom 166Cl   basis set group =>   7
---------------------------------
AUXILIARY/J BASIS SET INFORMATION
---------------------------------
There are 7 groups of distinct atoms

 Group   1 Type C   : 12s5p4d2f1g contracted to 6s4p3d1f1g pattern {711111/2111/211/2/1}
 Group   2 Type O   : 12s5p4d2f1g contracted to 6s4p3d1f1g pattern {711111/2111/211/2/1}
 Group   3 Type H   : 5s2p1d contracted to 3s1p1d pattern {311/2/1}
 Group   4 Type Br  : 19s5p5d3f1g contracted to 8s4p3d2f1g pattern {121111111/2111/311/21/1}
 Group   5 Type Rh  : 11s5p5d3f3g contracted to 8s5p5d2f3g pattern {41111111/11111/11111/21/111}
 Group   6 Type N   : 12s5p4d2f1g contracted to 6s4p3d1f1g pattern {711111/2111/211/2/1}
 Group   7 Type Cl  : 14s5p5d2f1g contracted to 8s4p3d1f1g pattern {71111111/2111/311/2/1}

Atom   0C    basis set group =>   1
Atom   1C    basis set group =>   1
Atom   2O    basis set group =>   2
Atom   3C    basis set group =>   1
Atom   4H    basis set group =>   3
Atom   5O    basis set group =>   2
Atom   6C    basis set group =>   1
Atom   7C    basis set group =>   1
Atom   8C    basis set group =>   1
Atom   9C    basis set group =>   1
Atom  10H    basis set group =>   3
Atom  11C    basis set group =>   1
Atom  12C    basis set group =>   1
Atom  13H    basis set group =>   3
Atom  14H    basis set group =>   3
Atom  15Br   basis set group =>   4
Atom  16O    basis set group =>   2
Atom  17C    basis set group =>   1
Atom  18H    basis set group =>   3
Atom  19H    basis set group =>   3
Atom  20H    basis set group =>   3
Atom  21H    basis set group =>   3
Atom  22Rh   basis set group =>   5
Atom  23Rh   basis set group =>   5
Atom  24C    basis set group =>   1
Atom  25C    basis set group =>   1
Atom  26N    basis set group =>   6
Atom  27H    basis set group =>   3
Atom  28O    basis set group =>   2
Atom  29O    basis set group =>   2
Atom  30C    basis set group =>   1
Atom  31C    basis set group =>   1
Atom  32C    basis set group =>   1
Atom  33O    basis set group =>   2
Atom  34C    basis set group =>   1
Atom  35O    basis set group =>   2
Atom  36C    basis set group =>   1
Atom  37C    basis set group =>   1
Atom  38C    basis set group =>   1
Atom  39C    basis set group =>   1
Atom  40C    basis set group =>   1
Atom  41C    basis set group =>   1
Atom  42N    basis set group =>   6
Atom  43H    basis set group =>   3
Atom  44O    basis set group =>   2
Atom  45O    basis set group =>   2
Atom  46C    basis set group =>   1
Atom  47C    basis set group =>   1
Atom  48C    basis set group =>   1
Atom  49O    basis set group =>   2
Atom  50C    basis set group =>   1
Atom  51O    basis set group =>   2
Atom  52C    basis set group =>   1
Atom  53C    basis set group =>   1
Atom  54C    basis set group =>   1
Atom  55C    basis set group =>   1
Atom  56O    basis set group =>   2
Atom  57C    basis set group =>   1
Atom  58C    basis set group =>   1
Atom  59O    basis set group =>   2
Atom  60N    basis set group =>   6
Atom  61H    basis set group =>   3
Atom  62C    basis set group =>   1
Atom  63C    basis set group =>   1
Atom  64C    basis set group =>   1
Atom  65O    basis set group =>   2
Atom  66C    basis set group =>   1
Atom  67O    basis set group =>   2
Atom  68C    basis set group =>   1
Atom  69C    basis set group =>   1
Atom  70C    basis set group =>   1
Atom  71C    basis set group =>   1
Atom  72O    basis set group =>   2
Atom  73C    basis set group =>   1
Atom  74C    basis set group =>   1
Atom  75O    basis set group =>   2
Atom  76N    basis set group =>   6
Atom  77H    basis set group =>   3
Atom  78C    basis set group =>   1
Atom  79C    basis set group =>   1
Atom  80C    basis set group =>   1
Atom  81O    basis set group =>   2
Atom  82C    basis set group =>   1
Atom  83O    basis set group =>   2
Atom  84C    basis set group =>   1
Atom  85C    basis set group =>   1
Atom  86C    basis set group =>   1
Atom  87C    basis set group =>   1
Atom  88C    basis set group =>   1
Atom  89C    basis set group =>   1
Atom  90C    basis set group =>   1
Atom  91C    basis set group =>   1
Atom  92H    basis set group =>   3
Atom  93C    basis set group =>   1
Atom  94H    basis set group =>   3
Atom  95C    basis set group =>   1
Atom  96H    basis set group =>   3
Atom  97H    basis set group =>   3
Atom  98H    basis set group =>   3
Atom  99C    basis set group =>   1
Atom 100C    basis set group =>   1
Atom 101H    basis set group =>   3
Atom 102H    basis set group =>   3
Atom 103H    basis set group =>   3
Atom 104C    basis set group =>   1
Atom 105H    basis set group =>   3
Atom 106H    basis set group =>   3
Atom 107H    basis set group =>   3
Atom 108C    basis set group =>   1
Atom 109H    basis set group =>   3
Atom 110H    basis set group =>   3
Atom 111H    basis set group =>   3
Atom 112C    basis set group =>   1
Atom 113C    basis set group =>   1
Atom 114H    basis set group =>   3
Atom 115H    basis set group =>   3
Atom 116H    basis set group =>   3
Atom 117C    basis set group =>   1
Atom 118H    basis set group =>   3
Atom 119H    basis set group =>   3
Atom 120H    basis set group =>   3
Atom 121C    basis set group =>   1
Atom 122H    basis set group =>   3
Atom 123H    basis set group =>   3
Atom 124H    basis set group =>   3
Atom 125C    basis set group =>   1
Atom 126C    basis set group =>   1
Atom 127H    basis set group =>   3
Atom 128H    basis set group =>   3
Atom 129H    basis set group =>   3
Atom 130C    basis set group =>   1
Atom 131H    basis set group =>   3
Atom 132H    basis set group =>   3
Atom 133H    basis set group =>   3
Atom 134C    basis set group =>   1
Atom 135H    basis set group =>   3
Atom 136H    basis set group =>   3
Atom 137H    basis set group =>   3
Atom 138C    basis set group =>   1
Atom 139C    basis set group =>   1
Atom 140H    basis set group =>   3
Atom 141H    basis set group =>   3
Atom 142H    basis set group =>   3
Atom 143C    basis set group =>   1
Atom 144H    basis set group =>   3
Atom 145H    basis set group =>   3
Atom 146H    basis set group =>   3
Atom 147C    basis set group =>   1
Atom 148H    basis set group =>   3
Atom 149H    basis set group =>   3
Atom 150H    basis set group =>   3
Atom 151Cl   basis set group =>   7
Atom 152Cl   basis set group =>   7
Atom 153Cl   basis set group =>   7
Atom 154Cl   basis set group =>   7
Atom 155Cl   basis set group =>   7
Atom 156Cl   basis set group =>   7
Atom 157Cl   basis set group =>   7
Atom 158Cl   basis set group =>   7
Atom 159Cl   basis set group =>   7
Atom 160Cl   basis set group =>   7
Atom 161Cl   basis set group =>   7
Atom 162Cl   basis set group =>   7
Atom 163Cl   basis set group =>   7
Atom 164Cl   basis set group =>   7
Atom 165Cl   basis set group =>   7
Atom 166Cl   basis set group =>   7
-------------------------
ECP PARAMETER INFORMATION
-------------------------

 Group 1, Type Rh ECP Def2-ECP (replacing 28 core electrons, lmax=3)

Atom  22Rh   ECP group =>   1
Atom  23Rh   ECP group =>   1



           ************************************************************
           *        Program running with 16 parallel MPI-processes    *
           *              working on a common directory               *
           ************************************************************
------------------------------------------------------------------------------
                           ORCA GTO INTEGRAL CALCULATION
                           -- RI-GTO INTEGRALS CHOSEN --
------------------------------------------------------------------------------

                         BASIS SET STATISTICS AND STARTUP INFO

Gaussian basis set:
 # of primitive gaussian shells          ... 1706
 # of primitive gaussian functions       ... 3242
 # of contracted shells                  ...  836
 # of contracted basis functions         ... 1804
 Highest angular momentum                ...    2
 Maximum contraction depth               ...    6
Auxiliary gaussian basis set:
 # of primitive gaussian shells          ... 3223
 # of primitive gaussian functions       ... 9017
 # of contracted shells                  ... 2026
 # of contracted aux-basis functions     ... 6290
 Highest angular momentum                ...    4
 Maximum contraction depth               ...   12
Ratio of auxiliary to basis functions    ...  3.49
Integral package used                  ... LIBINT
 One Electron integrals                  
   ECP integrals                         ... done
 Ordering auxiliary basis shells         ... done
 Integral threshhold             Thresh  ...  1.000e-10
 Primitive cut-off               TCut    ...  1.000e-11
 Pre-screening matrix                    ... done
 Shell pair data                         ... 
 Ordering of the shell pairs             ... done (   0.034 sec) 144683 of 349866 pairs
 Determination of significant pairs      ... done (   0.001 sec)
 Creation of shell pair data             ... done (   0.012 sec)
 Storage of shell pair data              ... done (   0.019 sec)
 Shell pair data done in (   0.066 sec)
 Computing two index integrals           ... done
 Cholesky decomposition of the V-matrix  ... done


Timings:
 Total evaluation time                   ...  10.902 sec (  0.182 min)
 One electron matrix time                ...   5.731 sec (  0.096 min) = 52.6%
 Schwartz matrix evaluation time         ...   1.786 sec (  0.030 min) = 16.4%
 Two index repulsion integral time       ...   0.899 sec (  0.015 min) =  8.2%
 Cholesky decomposition of V             ...   2.400 sec (  0.040 min) = 22.0%
 Three index repulsion integral time     ...   0.000 sec (  0.000 min) =  0.0%



           ************************************************************
           *        Program running with 16 parallel MPI-processes    *
           *              working on a common directory               *
           ************************************************************
-------------------------------------------------------------------------------
                                 ORCA SCF
-------------------------------------------------------------------------------

------------
SCF SETTINGS
------------
Hamiltonian:
 Density Functional     Method          .... DFT(GTOs)
 Exchange Functional    Exchange        .... B88
   X-Alpha parameter    XAlpha          ....  0.666667
   Becke's b parameter  XBeta           ....  0.004200
 Correlation Functional Correlation     .... LYP
 Gradients option       PostSCFGGA      .... off
   Density functional embedding theory  .... OFF
   NL short-range parameter             ....  4.000000
 RI-approximation to the Coulomb term is turned on
   Number of auxiliary basis functions  .... 6290


General Settings:
 Integral files         IntName         .... Cl_CA_TSopt_freq
 Hartree-Fock type      HFTyp           .... RHF
 Total Charge           Charge          ....    0
 Multiplicity           Mult            ....    1
 Number of Electrons    NEL             .... 1006
 Basis Dimension        Dim             .... 1804
 Nuclear Repulsion      ENuc            ....  41689.3183516517 Eh

Convergence Acceleration:
 DIIS                   CNVDIIS         .... on
   Start iteration      DIISMaxIt       ....    12
   Startup error        DIISStart       ....  0.200000
   # of expansion vecs  DIISMaxEq       ....     5
   Bias factor          DIISBfac        ....   1.050
   Max. coefficient     DIISMaxC        ....  10.000
 Newton-Raphson         CNVNR           .... off
 SOSCF                  CNVSOSCF        .... off
 Level Shifting         CNVShift        .... on
   Level shift para.    LevelShift      ....    0.2500
   Turn off err/grad.   ShiftErr        ....    0.0010
 Zerner damping         CNVZerner       .... off
 Static damping         CNVDamp         .... on
   Fraction old density DampFac         ....    0.7000
   Max. Damping (<1)    DampMax         ....    0.9800
   Min. Damping (>=0)   DampMin         ....    0.0000
   Turn off err/grad.   DampErr         ....    0.1000
 Fernandez-Rico         CNVRico         .... off

SCF Procedure:
 Maximum # iterations   MaxIter         ....   125
 SCF integral mode      SCFMode         .... Direct
   Integral package                     .... LIBINT
 Reset frequency        DirectResetFreq ....    20
 Integral Threshold     Thresh          ....  1.000e-10 Eh
 Primitive CutOff       TCut            ....  1.000e-11 Eh

Convergence Tolerance:
 Convergence Check Mode ConvCheckMode   .... Total+1el-Energy
 Convergence forced     ConvForced      .... 0
 Energy Change          TolE            ....  1.000e-06 Eh
 1-El. energy change                    ....  1.000e-03 Eh
 DIIS Error             TolErr          ....  1.000e-06


Diagonalization of the overlap matrix:
Smallest eigenvalue                        ... 1.442e-04
Time for diagonalization                   ...    0.602 sec
Threshold for overlap eigenvalues          ... 1.000e-08
Number of eigenvalues below threshold      ... 0
Time for construction of square roots      ...    0.474 sec
Total time needed                          ...    1.089 sec

-------------------
DFT GRID GENERATION
-------------------

General Integration Accuracy     IntAcc      ...  4.340
Radial Grid Type                 RadialGrid  ... Gauss-Chebyshev
Angular Grid (max. acc.)         AngularGrid ... Lebedev-110
Angular grid pruning method      GridPruning ... 3 (G Style)
Weight generation scheme         WeightScheme... Becke
Basis function cutoff            BFCut       ...    1.0000e-10
Integration weight cutoff        WCut        ...    1.0000e-14
Grids for H and He will be reduced by one unit

# of grid points (after initial pruning)     ... 239680 (   0.0 sec)
# of grid points (after weights+screening)   ... 200486 (   1.2 sec)
nearest neighbour list constructed           ...    0.0 sec
Grid point re-assignment to atoms done       ...    0.0 sec
Grid point division into batches done        ...    0.2 sec
Reduced shell lists constructed in    0.6 sec

Total number of grid points                  ...   200486
Total number of batches                      ...     3217
Average number of points per batch           ...       62
Average number of grid points per atom       ...     1201
Average number of shells per batch           ...   245.89 (29.41%)
Average number of basis functions per batch  ...   500.85 (27.76%)
Average number of large shells per batch     ...   115.90 (47.13%)
Average number of large basis fcns per batch ...   244.53 (48.82%)
Maximum spatial batch extension              ...   4.68,  8.73, 13.23 au
Average spatial batch extension              ...   0.12,  0.12,  0.13 au

Time for grid setup =    2.596 sec

------------------------------
INITIAL GUESS: MODEL POTENTIAL
------------------------------
Loading Hartree-Fock densities                     ... done
  calling /home/zhtfeng/bin/software/orca_4_2_1/orca Cl_CA_TSopt_freq_atom45.inp > Cl_CA_TSopt_freq_atom45.out in order to generate an atomic fitting density for atom 22 (Rh with ECP) on-the-fly... 
    atom 22 (Rh), assumed electronic state with S=4: 1s2 2s2 2p6 3s2 3p6 4s2 3d10 4p6 5s2 4d7           ... done
Calculating cut-offs                               ... done
Setting up the integral package                    ... done
Initializing the effective Hamiltonian             ... done
Starting the Coulomb interaction                   ... done (   3.0 sec)
Reading the grid                                   ... done
Mapping shells                                     ... done
Starting the XC term evaluation                    ... done (   3.3 sec)
  promolecular density results
     # of electrons  =   1062.003029060
     EX              =  -1366.305311822
     EC              =    -40.894921452
     EX+EC           =  -1407.200233274
Transforming the Hamiltonian                       ... done (   1.0 sec)
Diagonalizing the Hamiltonian                      ... done (  46.3 sec)
Back transforming the eigenvectors                 ... done (   0.7 sec)
Now organizing SCF variables                       ... done
[...]
freq.     368.64  E(vib)   ...       0.21 
freq.     374.09  E(vib)   ...       0.21 
freq.     376.12  E(vib)   ...       0.21 
freq.     377.64  E(vib)   ...       0.21 
freq.     379.39  E(vib)   ...       0.21 
freq.     380.96  E(vib)   ...       0.21 
freq.     382.39  E(vib)   ...       0.21 
freq.     385.35  E(vib)   ...       0.20 
freq.     387.16  E(vib)   ...       0.20 
freq.     388.17  E(vib)   ...       0.20 
freq.     389.42  E(vib)   ...       0.20 
freq.     393.54  E(vib)   ...       0.20 
freq.     394.66  E(vib)   ...       0.20 
freq.     395.74  E(vib)   ...       0.20 
freq.     397.87  E(vib)   ...       0.20 
freq.     405.72  E(vib)   ...       0.19 
freq.     452.09  E(vib)   ...       0.16 
freq.     460.87  E(vib)   ...       0.16 
freq.     461.21  E(vib)   ...       0.16 
freq.     463.81  E(vib)   ...       0.16 
freq.     466.09  E(vib)   ...       0.16 
freq.     470.98  E(vib)   ...       0.15 
freq.     481.47  E(vib)   ...       0.15 
freq.     485.70  E(vib)   ...       0.15 
freq.     489.86  E(vib)   ...       0.15 
freq.     492.03  E(vib)   ...       0.14 
freq.     507.48  E(vib)   ...       0.14 
freq.     516.50  E(vib)   ...       0.13 
freq.     517.23  E(vib)   ...       0.13 
freq.     517.60  E(vib)   ...       0.13 
freq.     518.08  E(vib)   ...       0.13 
freq.     520.90  E(vib)   ...       0.13 
freq.     521.37  E(vib)   ...       0.13 
freq.     521.59  E(vib)   ...       0.13 
freq.     523.06  E(vib)   ...       0.13 
freq.     534.66  E(vib)   ...       0.13 
freq.     564.90  E(vib)   ...       0.11 
freq.     567.78  E(vib)   ...       0.11 
freq.     570.45  E(vib)   ...       0.11 
freq.     572.45  E(vib)   ...       0.11 
freq.     573.52  E(vib)   ...       0.11 
freq.     578.11  E(vib)   ...       0.11 
freq.     585.05  E(vib)   ...       0.11 
freq.     589.26  E(vib)   ...       0.10 
freq.     590.29  E(vib)   ...       0.10 
freq.     593.30  E(vib)   ...       0.10 
freq.     595.66  E(vib)   ...       0.10 
freq.     596.91  E(vib)   ...       0.10 
freq.     598.70  E(vib)   ...       0.10 
freq.     600.25  E(vib)   ...       0.10 
freq.     603.88  E(vib)   ...       0.10 
freq.     607.10  E(vib)   ...       0.10 
freq.     607.39  E(vib)   ...       0.10 
freq.     608.25  E(vib)   ...       0.10 
freq.     608.79  E(vib)   ...       0.10 
freq.     611.76  E(vib)   ...       0.10 
freq.     614.25  E(vib)   ...       0.10 
freq.     624.14  E(vib)   ...       0.09 
freq.     632.90  E(vib)   ...       0.09 
freq.     638.10  E(vib)   ...       0.09 
freq.     643.17  E(vib)   ...       0.09 
freq.     648.71  E(vib)   ...       0.08 
freq.     651.55  E(vib)   ...       0.08 
freq.     657.11  E(vib)   ...       0.08 
freq.     665.02  E(vib)   ...       0.08 
freq.     669.78  E(vib)   ...       0.08 
freq.     689.72  E(vib)   ...       0.07 
freq.     691.87  E(vib)   ...       0.07 
freq.     706.21  E(vib)   ...       0.07 
freq.     713.49  E(vib)   ...       0.07 
freq.     713.52  E(vib)   ...       0.07 
freq.     714.54  E(vib)   ...       0.07 
freq.     715.20  E(vib)   ...       0.07 
freq.     719.81  E(vib)   ...       0.07 
freq.     721.45  E(vib)   ...       0.07 
freq.     725.36  E(vib)   ...       0.06 
freq.     728.12  E(vib)   ...       0.06 
freq.     732.39  E(vib)   ...       0.06 
freq.     733.63  E(vib)   ...       0.06 
freq.     738.33  E(vib)   ...       0.06 
freq.     739.07  E(vib)   ...       0.06 
freq.     744.53  E(vib)   ...       0.06 
freq.     746.79  E(vib)   ...       0.06 
freq.     747.11  E(vib)   ...       0.06 
freq.     750.01  E(vib)   ...       0.06 
freq.     750.91  E(vib)   ...       0.06 
freq.     753.38  E(vib)   ...       0.06 
freq.     753.84  E(vib)   ...       0.06 
freq.     758.02  E(vib)   ...       0.06 
freq.     761.59  E(vib)   ...       0.06 
freq.     764.65  E(vib)   ...       0.06 
freq.     771.13  E(vib)   ...       0.05 
freq.     774.52  E(vib)   ...       0.05 
freq.     777.84  E(vib)   ...       0.05 
freq.     782.98  E(vib)   ...       0.05 
freq.     794.60  E(vib)   ...       0.05 
freq.     806.12  E(vib)   ...       0.05 
freq.     806.47  E(vib)   ...       0.05 
freq.     809.54  E(vib)   ...       0.05 
freq.     811.02  E(vib)   ...       0.05 
freq.     811.78  E(vib)   ...       0.05 
freq.     829.09  E(vib)   ...       0.04 
freq.     834.27  E(vib)   ...       0.04 
freq.     837.39  E(vib)   ...       0.04 
freq.     850.28  E(vib)   ...       0.04 
freq.     853.67  E(vib)   ...       0.04 
freq.     854.86  E(vib)   ...       0.04 
freq.     855.93  E(vib)   ...       0.04 
freq.     868.52  E(vib)   ...       0.04 
freq.     893.68  E(vib)   ...       0.03 
freq.     894.08  E(vib)   ...       0.03 
freq.     896.72  E(vib)   ...       0.03 
freq.     897.55  E(vib)   ...       0.03 
freq.     906.55  E(vib)   ...       0.03 
freq.     914.39  E(vib)   ...       0.03 
freq.     915.19  E(vib)   ...       0.03 
freq.     916.53  E(vib)   ...       0.03 
freq.     916.65  E(vib)   ...       0.03 
freq.     920.43  E(vib)   ...       0.03 
freq.     920.79  E(vib)   ...       0.03 
freq.     922.07  E(vib)   ...       0.03 
freq.     922.36  E(vib)   ...       0.03 
freq.     926.90  E(vib)   ...       0.03 
freq.     936.56  E(vib)   ...       0.03 
freq.     937.54  E(vib)   ...       0.03 
freq.     940.84  E(vib)   ...       0.03 
freq.     943.25  E(vib)   ...       0.03 
freq.     943.65  E(vib)   ...       0.03 
freq.     944.45  E(vib)   ...       0.03 
freq.     945.20  E(vib)   ...       0.03 
freq.     947.63  E(vib)   ...       0.03 
freq.     947.87  E(vib)   ...       0.03 
freq.     970.99  E(vib)   ...       0.03 
freq.     972.75  E(vib)   ...       0.03 
freq.     977.74  E(vib)   ...       0.03 
freq.     982.35  E(vib)   ...       0.02 
freq.     985.41  E(vib)   ...       0.02 
freq.     988.19  E(vib)   ...       0.02 
freq.     994.19  E(vib)   ...       0.02 
freq.    1000.99  E(vib)   ...       0.02 
freq.    1010.30  E(vib)   ...       0.02 
freq.    1011.28  E(vib)   ...       0.02 
freq.    1014.30  E(vib)   ...       0.02 
freq.    1015.39  E(vib)   ...       0.02 
freq.    1016.53  E(vib)   ...       0.02 
freq.    1020.31  E(vib)   ...       0.02 
freq.    1027.91  E(vib)   ...       0.02 
freq.    1029.61  E(vib)   ...       0.02 
freq.    1031.98  E(vib)   ...       0.02 
freq.    1032.41  E(vib)   ...       0.02 
freq.    1037.52  E(vib)   ...       0.02 
freq.    1039.30  E(vib)   ...       0.02 
freq.    1043.71  E(vib)   ...       0.02 
freq.    1044.23  E(vib)   ...       0.02 
freq.    1047.06  E(vib)   ...       0.02 
freq.    1059.70  E(vib)   ...       0.02 
freq.    1077.64  E(vib)   ...       0.02 
freq.    1080.08  E(vib)   ...       0.02 
freq.    1096.74  E(vib)   ...       0.02 
freq.    1098.63  E(vib)   ...       0.02 
freq.    1099.51  E(vib)   ...       0.02 
freq.    1101.08  E(vib)   ...       0.02 
freq.    1131.66  E(vib)   ...       0.01 
freq.    1132.73  E(vib)   ...       0.01 
freq.    1134.87  E(vib)   ...       0.01 
freq.    1135.58  E(vib)   ...       0.01 
freq.    1137.27  E(vib)   ...       0.01 
freq.    1145.67  E(vib)   ...       0.01 
freq.    1148.60  E(vib)   ...       0.01 
freq.    1167.97  E(vib)   ...       0.01 
freq.    1177.79  E(vib)   ...       0.01 
freq.    1178.26  E(vib)   ...       0.01 
freq.    1180.35  E(vib)   ...       0.01 
freq.    1180.61  E(vib)   ...       0.01 
freq.    1181.42  E(vib)   ...       0.01 
freq.    1181.84  E(vib)   ...       0.01 
freq.    1183.40  E(vib)   ...       0.01 
freq.    1184.46  E(vib)   ...       0.01 
freq.    1188.27  E(vib)   ...       0.01 
freq.    1201.91  E(vib)   ...       0.01 
freq.    1207.37  E(vib)   ...       0.01 
freq.    1207.97  E(vib)   ...       0.01 
freq.    1208.31  E(vib)   ...       0.01 
freq.    1209.82  E(vib)   ...       0.01 
freq.    1228.37  E(vib)   ...       0.01 
freq.    1228.48  E(vib)   ...       0.01 
freq.    1234.42  E(vib)   ...       0.01 
freq.    1235.68  E(vib)   ...       0.01 
freq.    1236.59  E(vib)   ...       0.01 
freq.    1245.33  E(vib)   ...       0.01 
freq.    1274.06  E(vib)   ...       0.01 
freq.    1277.89  E(vib)   ...       0.01 
freq.    1284.79  E(vib)   ...       0.01 
freq.    1290.27  E(vib)   ...       0.01 
freq.    1298.83  E(vib)   ...       0.01 
freq.    1302.70  E(vib)   ...       0.01 
freq.    1304.68  E(vib)   ...       0.01 
freq.    1310.76  E(vib)   ...       0.01 
freq.    1312.54  E(vib)   ...       0.01 
freq.    1313.04  E(vib)   ...       0.01 
freq.    1313.73  E(vib)   ...       0.01 
freq.    1314.74  E(vib)   ...       0.01 
freq.    1318.18  E(vib)   ...       0.01 
freq.    1319.10  E(vib)   ...       0.01 
freq.    1319.97  E(vib)   ...       0.01 
freq.    1336.71  E(vib)   ...       0.01 
freq.    1337.44  E(vib)   ...       0.01 
freq.    1337.96  E(vib)   ...       0.01 
freq.    1338.22  E(vib)   ...       0.01 
freq.    1345.55  E(vib)   ...       0.01 
freq.    1349.04  E(vib)   ...       0.01 
freq.    1349.16  E(vib)   ...       0.01 
freq.    1350.39  E(vib)   ...       0.01 
freq.    1353.08  E(vib)   ...       0.01 
freq.    1356.88  E(vib)   ...       0.01 
freq.    1357.35  E(vib)   ...       0.01 
freq.    1357.61  E(vib)   ...       0.01 
freq.    1358.04  E(vib)   ...       0.01 
freq.    1358.41  E(vib)   ...       0.01 
freq.    1358.67  E(vib)   ...       0.01 
freq.    1358.96  E(vib)   ...       0.01 
freq.    1359.36  E(vib)   ...       0.01 
freq.    1359.86  E(vib)   ...       0.01 
freq.    1360.88  E(vib)   ...       0.01 
freq.    1361.89  E(vib)   ...       0.01 
freq.    1362.29  E(vib)   ...       0.01 
freq.    1362.91  E(vib)   ...       0.01 
freq.    1363.74  E(vib)   ...       0.01 
freq.    1366.70  E(vib)   ...       0.01 
freq.    1369.38  E(vib)   ...       0.01 
freq.    1374.93  E(vib)   ...       0.01 
freq.    1382.03  E(vib)   ...       0.01 
freq.    1390.14  E(vib)   ...       0.00 
freq.    1390.79  E(vib)   ...       0.00 
freq.    1392.12  E(vib)   ...       0.00 
freq.    1394.21  E(vib)   ...       0.00 
freq.    1402.15  E(vib)   ...       0.00 
freq.    1420.80  E(vib)   ...       0.00 
freq.    1421.61  E(vib)   ...       0.00 
freq.    1421.83  E(vib)   ...       0.00 
freq.    1423.14  E(vib)   ...       0.00 
freq.    1429.70  E(vib)   ...       0.00 
freq.    1430.44  E(vib)   ...       0.00 
freq.    1431.90  E(vib)   ...       0.00 
freq.    1433.34  E(vib)   ...       0.00 
freq.    1434.46  E(vib)   ...       0.00 
freq.    1434.77  E(vib)   ...       0.00 
freq.    1437.00  E(vib)   ...       0.00 
freq.    1438.64  E(vib)   ...       0.00 
freq.    1439.14  E(vib)   ...       0.00 
freq.    1440.05  E(vib)   ...       0.00 
freq.    1445.87  E(vib)   ...       0.00 
freq.    1447.12  E(vib)   ...       0.00 
freq.    1448.78  E(vib)   ...       0.00 
freq.    1449.41  E(vib)   ...       0.00 
freq.    1452.25  E(vib)   ...       0.00 
freq.    1452.59  E(vib)   ...       0.00 
freq.    1453.69  E(vib)   ...       0.00 
freq.    1453.90  E(vib)   ...       0.00 
freq.    1455.12  E(vib)   ...       0.00 
freq.    1455.95  E(vib)   ...       0.00 
freq.    1461.26  E(vib)   ...       0.00 
freq.    1466.38  E(vib)   ...       0.00 
freq.    1467.90  E(vib)   ...       0.00 
freq.    1469.47  E(vib)   ...       0.00 
freq.    1470.62  E(vib)   ...       0.00 
freq.    1490.16  E(vib)   ...       0.00 
freq.    1517.60  E(vib)   ...       0.00 
freq.    1518.37  E(vib)   ...       0.00 
freq.    1542.89  E(vib)   ...       0.00 
freq.    1545.32  E(vib)   ...       0.00 
freq.    1546.97  E(vib)   ...       0.00 
freq.    1548.01  E(vib)   ...       0.00 
freq.    1550.62  E(vib)   ...       0.00 
freq.    1551.06  E(vib)   ...       0.00 
freq.    1551.29  E(vib)   ...       0.00 
freq.    1553.37  E(vib)   ...       0.00 
freq.    1554.17  E(vib)   ...       0.00 
freq.    1555.11  E(vib)   ...       0.00 
freq.    1570.88  E(vib)   ...       0.00 
freq.    1588.17  E(vib)   ...       0.00 
freq.    1598.57  E(vib)   ...       0.00 
freq.    1605.85  E(vib)   ...       0.00 
freq.    1643.59  E(vib)   ...       0.00 
freq.    1716.84  E(vib)   ...       0.00 
freq.    1726.83  E(vib)   ...       0.00 
freq.    1728.31  E(vib)   ...       0.00 
freq.    1728.57  E(vib)   ...       0.00 
freq.    1769.74  E(vib)   ...       0.00 
freq.    1778.92  E(vib)   ...       0.00 
freq.    1780.42  E(vib)   ...       0.00 
freq.    1782.56  E(vib)   ...       0.00 
freq.    1811.24  E(vib)   ...       0.00 
freq.    2926.95  E(vib)   ...       0.00 
freq.    2931.05  E(vib)   ...       0.00 
freq.    2936.89  E(vib)   ...       0.00 
freq.    2938.18  E(vib)   ...       0.00 
freq.    2938.40  E(vib)   ...       0.00 
freq.    2940.04  E(vib)   ...       0.00 
freq.    2940.67  E(vib)   ...       0.00 
freq.    2941.52  E(vib)   ...       0.00 
freq.    2944.82  E(vib)   ...       0.00 
freq.    2946.52  E(vib)   ...       0.00 
freq.    2948.07  E(vib)   ...       0.00 
freq.    2948.75  E(vib)   ...       0.00 
freq.    2951.05  E(vib)   ...       0.00 
freq.    2987.04  E(vib)   ...       0.00 
freq.    2991.67  E(vib)   ...       0.00 
freq.    2999.15  E(vib)   ...       0.00 
freq.    3000.85  E(vib)   ...       0.00 
freq.    3003.75  E(vib)   ...       0.00 
freq.    3003.77  E(vib)   ...       0.00 
freq.    3006.33  E(vib)   ...       0.00 
freq.    3006.74  E(vib)   ...       0.00 
freq.    3008.86  E(vib)   ...       0.00 
freq.    3009.04  E(vib)   ...       0.00 
freq.    3010.23  E(vib)   ...       0.00 
freq.    3011.57  E(vib)   ...       0.00 
freq.    3012.40  E(vib)   ...       0.00 
freq.    3014.73  E(vib)   ...       0.00 
freq.    3016.06  E(vib)   ...       0.00 
freq.    3018.09  E(vib)   ...       0.00 
freq.    3020.83  E(vib)   ...       0.00 
freq.    3022.95  E(vib)   ...       0.00 
freq.    3024.00  E(vib)   ...       0.00 
freq.    3024.18  E(vib)   ...       0.00 
freq.    3030.35  E(vib)   ...       0.00 
freq.    3043.08  E(vib)   ...       0.00 
freq.    3054.07  E(vib)   ...       0.00 
freq.    3054.65  E(vib)   ...       0.00 
freq.    3056.84  E(vib)   ...       0.00 
freq.    3058.23  E(vib)   ...       0.00 
freq.    3059.14  E(vib)   ...       0.00 
freq.    3063.90  E(vib)   ...       0.00 
freq.    3066.76  E(vib)   ...       0.00 
freq.    3089.04  E(vib)   ...       0.00 
freq.    3090.86  E(vib)   ...       0.00 
freq.    3096.55  E(vib)   ...       0.00 
freq.    3106.65  E(vib)   ...       0.00 
freq.    3111.87  E(vib)   ...       0.00 
freq.    3123.18  E(vib)   ...       0.00 
freq.    3126.68  E(vib)   ...       0.00 
freq.    3137.93  E(vib)   ...       0.00 
freq.    3140.59  E(vib)   ...       0.00 
freq.    3150.96  E(vib)   ...       0.00 

------------
INNER ENERGY
------------

The inner energy is: U= E(el) + E(ZPE) + E(vib) + E(rot) + E(trans)
    E(el)   - is the total energy from the electronic structure calculation
              = E(kin-el) + E(nuc-el) + E(el-el) + E(nuc-nuc)
    E(ZPE)  - the the zero temperature vibrational energy from the frequency calculation
    E(vib)  - the the finite temperature correction to E(ZPE) due to population
              of excited vibrational states
    E(rot)  - is the rotational thermal energy
    E(trans)- is the translational thermal energy

Summary of contributions to the inner energy U:
Electronic energy                ... -14575.79635666 Eh
Zero point energy                ...      1.10713038 Eh     694.73 kcal/mol
Thermal vibrational correction   ...      0.11197326 Eh      70.26 kcal/mol
Thermal rotational correction    ...      0.00141627 Eh       0.89 kcal/mol
Thermal translational correction ...      0.00141627 Eh       0.89 kcal/mol
-----------------------------------------------------------------------
Total thermal energy                 -14574.57442049 Eh


Summary of corrections to the electronic energy:
(perhaps to be used in another calculation)
Total thermal correction                  0.11480580 Eh      72.04 kcal/mol
Non-thermal (ZPE) correction              1.10713038 Eh     694.73 kcal/mol
-----------------------------------------------------------------------
Total correction                          1.22193618 Eh     766.77 kcal/mol


--------
ENTHALPY
--------

The enthalpy is H = U + kB*T
                kB is Boltzmann's constant
Total free energy                 ... -14574.57442049 Eh 
Thermal Enthalpy correction       ...      0.00094421 Eh       0.59 kcal/mol
-----------------------------------------------------------------------
Total Enthalpy                    ... -14574.57347628 Eh


Note: Only C1 symmetry has been detected, increase convergence thresholds 
      if your molecule has a higher symmetry. Symmetry factor of 1.0 is   
      used for the rotational entropy correction. 
 

Note: Rotational entropy computed according to Herzberg 
Infrared and Raman Spectra, Chapter V,1, Van Nostrand Reinhold, 1945 
Point Group:  C1, Symmetry Number:   1  
Rotational constants in cm-1:     0.000436     0.000374     0.000317 

Vibrational entropy computed according to the QRRHO of S. Grimme
Chem.Eur.J. 2012 18 9955


-------
ENTROPY
-------

The entropy contributions are T*S = T*(S(el)+S(vib)+S(rot)+S(trans))
     S(el)   - electronic entropy
     S(vib)  - vibrational entropy
     S(rot)  - rotational entropy
     S(trans)- translational entropy
The entropies will be listed as mutliplied by the temperature to get
units of energy

Electronic entropy                ...      0.00000000 Eh      0.00 kcal/mol
Vibrational entropy               ...      0.20327671 Eh    127.56 kcal/mol
Rotational entropy                ...      0.02069188 Eh     12.98 kcal/mol
Translational entropy             ...      0.02320399 Eh     14.56 kcal/mol
-----------------------------------------------------------------------
Final entropy term                ...      0.24717258 Eh    155.10 kcal/mol

In case the symmetry of your molecule has not been determined correctly
or in case you have a reason to use a different symmetry number we print 
out the resulting rotational entropy values for sn=1,12 :
 --------------------------------------------------------
|  sn= 1 | S(rot)=       0.02069188 Eh     12.98 kcal/mol|
|  sn= 2 | S(rot)=       0.02003742 Eh     12.57 kcal/mol|
|  sn= 3 | S(rot)=       0.01965459 Eh     12.33 kcal/mol|
|  sn= 4 | S(rot)=       0.01938296 Eh     12.16 kcal/mol|
|  sn= 5 | S(rot)=       0.01917228 Eh     12.03 kcal/mol|
|  sn= 6 | S(rot)=       0.01900013 Eh     11.92 kcal/mol|
|  sn= 7 | S(rot)=       0.01885458 Eh     11.83 kcal/mol|
|  sn= 8 | S(rot)=       0.01872851 Eh     11.75 kcal/mol|
|  sn= 9 | S(rot)=       0.01861730 Eh     11.68 kcal/mol|
|  sn=10 | S(rot)=       0.01851782 Eh     11.62 kcal/mol|
|  sn=11 | S(rot)=       0.01842783 Eh     11.56 kcal/mol|
|  sn=12 | S(rot)=       0.01834567 Eh     11.51 kcal/mol|
 --------------------------------------------------------


-------------------
GIBBS FREE ENERGY
-------------------

The Gibbs free energy is G = H - T*S

Total enthalpy                    ... -14574.57347628 Eh 
Total entropy correction          ...     -0.24717258 Eh   -155.10 kcal/mol
-----------------------------------------------------------------------
Final Gibbs free energy         ... -14574.82064886 Eh

For completeness - the Gibbs free energy minus the electronic energy
G-E(el)                           ...      0.97570780 Eh    612.26 kcal/mol


Timings for individual modules:

Sum of individual times         ...    37170.679 sec (= 619.511 min)
GTO integral calculation        ...       15.960 sec (=   0.266 min)   0.0 %
SCF iterations                  ...      386.086 sec (=   6.435 min)   1.0 %
Analytical frequency calculation...    36768.633 sec (= 612.811 min)  98.9 %
                             ****ORCA TERMINATED NORMALLY****
TOTAL RUN TIME: 0 days 10 hours 19 minutes 58 seconds 737 msec
